   10   10    1    2
  0.1028161E+02  0.5472400E-09  0.5472397E-09  0.5472398E-09  0.5000000E-15
  1.000000000000000E-004
  CAR 
 Fe2O3                                   
     68    150     42
 
  0.5000000E+00 -0.2333355E+00  0.2333355E+00  0.6666667E-02
    1      -14.271940    -14.271934   1.000000   1.000000
    2      -14.258181    -14.258188   1.000000   1.000000
    3      -13.873058    -13.873059   1.000000   1.000000
    4      -13.861432    -13.861432   1.000000   1.000000
    5      -13.650537    -13.650542   1.000000   1.000000
    6      -13.579440    -13.579439   1.000000   1.000000
    7       -3.876662     -3.876686   1.000000   1.000000
    8       -3.693669     -3.693695   1.000000   1.000000
    9       -3.517126     -3.517156   1.000000   1.000000
   10       -3.429371     -3.429397   1.000000   1.000000
   11       -3.229732     -3.229763   1.000000   1.000000
   12       -3.072567     -3.072595   1.000000   1.000000
   13       -3.028194     -3.028224   1.000000   1.000000
   14       -2.911947     -2.911978   1.000000   1.000000
   15       -2.778581     -2.778614   1.000000   1.000000
   16       -2.391239     -2.391275   1.000000   1.000000
   17       -1.337562     -1.337559   1.000000   1.000000
   18       -1.159341     -1.159349   1.000000   1.000000
   19       -0.905469     -0.905479   1.000000   1.000000
   20       -0.329361     -0.329362   1.000000   1.000000
   21       -0.060778     -0.060779   1.000000   1.000000
   22        0.073279      0.073276   1.000000   1.000000
   23        0.322415      0.322407   1.000000   1.000000
   24        0.589681      0.589685   1.000000   1.000000
   25        0.688254      0.688263   1.000000   1.000000
   26        1.055101      1.055100   1.000000   1.000000
   27        1.286396      1.286398   1.000000   1.000000
   28        1.540398      1.540401   1.000000   1.000000
   29        1.701264      1.701257   1.000000   1.000000
   30        1.896263      1.896260   1.000000   1.000000
   31        2.355126      2.355125   1.000000   1.000000
   32        2.499907      2.499899   1.000000   1.000000
   33        2.574835      2.574831   1.000004   1.000004
   34        3.032151      3.032144   1.035457   1.035457
   35        5.501266      5.501299  -0.000000  -0.000000
   36        5.589133      5.589167  -0.000000  -0.000000
   37        5.688547      5.688576  -0.000000  -0.000000
   38        5.976307      5.976343  -0.000000  -0.000000
   39        5.996013      5.996049  -0.000000  -0.000000
   40        6.108260      6.108409  -0.000000  -0.000000
   41        6.369739      6.369842  -0.000000  -0.000000
   42        6.452633      6.452694  -0.000000  -0.000000
 
  0.5000000E+00 -0.2285736E+00  0.2285736E+00  0.6666667E-02
    1      -14.271369    -14.271364   1.000000   1.000000
    2      -14.258057    -14.258065   1.000000   1.000000
    3      -13.875022    -13.875023   1.000000   1.000000
    4      -13.859011    -13.859011   1.000000   1.000000
    5      -13.651270    -13.651275   1.000000   1.000000
    6      -13.579566    -13.579565   1.000000   1.000000
    7       -3.877471     -3.877494   1.000000   1.000000
    8       -3.691910     -3.691936   1.000000   1.000000
    9       -3.520268     -3.520298   1.000000   1.000000
   10       -3.435148     -3.435174   1.000000   1.000000
   11       -3.226065     -3.226096   1.000000   1.000000
   12       -3.066232     -3.066260   1.000000   1.000000
   13       -3.024279     -3.024310   1.000000   1.000000
   14       -2.914775     -2.914805   1.000000   1.000000
   15       -2.785390     -2.785423   1.000000   1.000000
   16       -2.387065     -2.387101   1.000000   1.000000
   17       -1.340828     -1.340824   1.000000   1.000000
   18       -1.171037     -1.171045   1.000000   1.000000
   19       -0.897429     -0.897439   1.000000   1.000000
   20       -0.334021     -0.334022   1.000000   1.000000
   21       -0.061935     -0.061936   1.000000   1.000000
   22        0.061210      0.061207   1.000000   1.000000
   23        0.313912      0.313904   1.000000   1.000000
   24        0.602830      0.602834   1.000000   1.000000
   25        0.683838      0.683848   1.000000   1.000000
   26        1.057791      1.057791   1.000000   1.000000
   27        1.296385      1.296387   1.000000   1.000000
   28        1.542286      1.542289   1.000000   1.000000
   29        1.705381      1.705375   1.000000   1.000000
   30        1.896194      1.896190   1.000000   1.000000
   31        2.358775      2.358774   1.000000   1.000000
   32        2.507553      2.507545   1.000000   1.000000
   33        2.577622      2.577618   1.000004   1.000004
   34        3.038539      3.038533   1.035315   1.035315
   35        5.497902      5.497935  -0.000000  -0.000000
   36        5.585233      5.585267  -0.000000  -0.000000
   37        5.682303      5.682332  -0.000000  -0.000000
   38        5.975128      5.975163  -0.000000  -0.000000
   39        5.997395      5.997436  -0.000000  -0.000000
   40        6.108139      6.108178  -0.000000  -0.000000
   41        6.373006      6.373016  -0.000000  -0.000000
   42        6.454143      6.454843  -0.000000  -0.000000
 
  0.5000000E+00 -0.2238116E+00  0.2238116E+00  0.6666667E-02
    1      -14.271292    -14.271286   1.000000   1.000000
    2      -14.258316    -14.258323   1.000000   1.000000
    3      -13.876525    -13.876526   1.000000   1.000000
    4      -13.855899    -13.855898   1.000000   1.000000
    5      -13.651965    -13.651969   1.000000   1.000000
    6      -13.579656    -13.579655   1.000000   1.000000
    7       -3.877915     -3.877939   1.000000   1.000000
    8       -3.689873     -3.689899   1.000000   1.000000
    9       -3.523213     -3.523243   1.000000   1.000000
   10       -3.440900     -3.440926   1.000000   1.000000
   11       -3.222236     -3.222267   1.000000   1.000000
   12       -3.060438     -3.060467   1.000000   1.000000
   13       -3.020274     -3.020304   1.000000   1.000000
   14       -2.917525     -2.917555   1.000000   1.000000
   15       -2.792266     -2.792298   1.000000   1.000000
   16       -2.383385     -2.383422   1.000000   1.000000
   17       -1.344074     -1.344071   1.000000   1.000000
   18       -1.182043     -1.182051   1.000000   1.000000
   19       -0.888988     -0.888998   1.000000   1.000000
   20       -0.339769     -0.339771   1.000000   1.000000
   21       -0.065928     -0.065930   1.000000   1.000000
   22        0.051836      0.051834   1.000000   1.000000
   23        0.305879      0.305871   1.000000   1.000000
   24        0.615791      0.615794   1.000000   1.000000
   25        0.679206      0.679217   1.000000   1.000000
   26        1.058326      1.058325   1.000000   1.000000
   27        1.308090      1.308091   1.000000   1.000000
   28        1.544269      1.544273   1.000000   1.000000
   29        1.709119      1.709112   1.000000   1.000000
   30        1.896353      1.896349   1.000000   1.000000
   31        2.362288      2.362287   1.000000   1.000000
   32        2.514558      2.514550   1.000000   1.000000
   33        2.581354      2.581350   1.000005   1.000005
   34        3.045144      3.045138   1.034795   1.034796
   35        5.494579      5.494612  -0.000000  -0.000000
   36        5.581948      5.581982  -0.000000  -0.000000
   37        5.675903      5.675928  -0.000000  -0.000000
   38        5.974238      5.974129  -0.000000  -0.000000
   39        5.998995      5.999011  -0.000000  -0.000000
   40        6.107850      6.107894  -0.000000  -0.000000
   41        6.377484      6.381539  -0.000000  -0.000000
   42        6.457919      6.457302  -0.000000  -0.000000
 
  0.5000000E+00 -0.2190497E+00  0.2190497E+00  0.6666667E-02
    1      -14.271799    -14.271793   1.000000   1.000000
    2      -14.259030    -14.259038   1.000000   1.000000
    3      -13.877629    -13.877630   1.000000   1.000000
    4      -13.852244    -13.852244   1.000000   1.000000
    5      -13.652673    -13.652678   1.000000   1.000000
    6      -13.579760    -13.579758   1.000000   1.000000
    7       -3.878005     -3.878028   1.000000   1.000000
    8       -3.687557     -3.687584   1.000000   1.000000
    9       -3.525966     -3.525996   1.000000   1.000000
   10       -3.446614     -3.446641   1.000000   1.000000
   11       -3.218266     -3.218296   1.000000   1.000000
   12       -3.055358     -3.055387   1.000000   1.000000
   13       -3.016098     -3.016128   1.000000   1.000000
   14       -2.920178     -2.920208   1.000000   1.000000
   15       -2.799112     -2.799144   1.000000   1.000000
   16       -2.380197     -2.380234   1.000000   1.000000
   17       -1.347412     -1.347410   1.000000   1.000000
   18       -1.192210     -1.192218   1.000000   1.000000
   19       -0.880205     -0.880215   1.000000   1.000000
   20       -0.346845     -0.346846   1.000000   1.000000
   21       -0.073164     -0.073166   1.000000   1.000000
   22        0.045799      0.045797   1.000000   1.000000
   23        0.298436      0.298427   1.000000   1.000000
   24        0.628532      0.628535   1.000000   1.000000
   25        0.674418      0.674428   1.000000   1.000000
   26        1.056754      1.056754   1.000000   1.000000
   27        1.321368      1.321370   1.000000   1.000000
   28        1.546260      1.546263   1.000000   1.000000
   29        1.712497      1.712490   1.000000   1.000000
   30        1.896766      1.896762   1.000000   1.000000
   31        2.365654      2.365653   1.000000   1.000000
   32        2.520932      2.520923   1.000001   1.000001
   33        2.585937      2.585932   1.000006   1.000006
   34        3.051918      3.051912   1.033818   1.033820
   35        5.491303      5.491336  -0.000000  -0.000000
   36        5.579276      5.579310  -0.000000  -0.000000
   37        5.669354      5.669384  -0.000000  -0.000000
   38        5.973174      5.973404  -0.000000  -0.000000
   39        6.000689      6.001073  -0.000000  -0.000000
   40        6.107396      6.108906  -0.000000  -0.000000
   41        6.379682      6.379459  -0.000000  -0.000000
   42        6.456892      6.459524  -0.000000  -0.000000
 
  0.5000000E+00 -0.2142877E+00  0.2142877E+00  0.6666667E-02
    1      -14.272843    -14.272837   1.000000   1.000000
    2      -14.260125    -14.260132   1.000000   1.000000
    3      -13.878274    -13.878275   1.000000   1.000000
    4      -13.848055    -13.848055   1.000000   1.000000
    5      -13.653333    -13.653338   1.000000   1.000000
    6      -13.579813    -13.579812   1.000000   1.000000
    7       -3.877746     -3.877769   1.000000   1.000000
    8       -3.684965     -3.684991   1.000000   1.000000
    9       -3.528531     -3.528561   1.000000   1.000000
   10       -3.452276     -3.452303   1.000000   1.000000
   11       -3.214174     -3.214205   1.000000   1.000000
   12       -3.051166     -3.051195   1.000000   1.000000
   13       -3.011668     -3.011698   1.000000   1.000000
   14       -2.922730     -2.922759   1.000000   1.000000
   15       -2.805806     -2.805838   1.000000   1.000000
   16       -2.377495     -2.377532   1.000000   1.000000
   17       -1.350965     -1.350964   1.000000   1.000000
   18       -1.201380     -1.201387   1.000000   1.000000
   19       -0.871126     -0.871136   1.000000   1.000000
   20       -0.355512     -0.355513   1.000000   1.000000
   21       -0.083394     -0.083397   1.000000   1.000000
   22        0.043151      0.043150   1.000000   1.000000
   23        0.291678      0.291670   1.000000   1.000000
   24        0.641019      0.641022   1.000000   1.000000
   25        0.669541      0.669552   1.000000   1.000000
   26        1.053198      1.053198   1.000000   1.000000
   27        1.336051      1.336052   1.000000   1.000000
   28        1.548164      1.548167   1.000000   1.000000
   29        1.715530      1.715523   1.000000   1.000000
   30        1.897474      1.897471   1.000000   1.000000
   31        2.368893      2.368892   1.000000   1.000000
   32        2.526732      2.526723   1.000001   1.000001
   33        2.591275      2.591270   1.000007   1.000007
   34        3.058833      3.058827   1.032303   1.032305
   35        5.488095      5.488128  -0.000000  -0.000000
   36        5.577216      5.577250  -0.000000  -0.000000
   37        5.662727      5.662747  -0.000000  -0.000000
   38        5.972321      5.972355  -0.000000  -0.000000
   39        6.002579      6.002643  -0.000000  -0.000000
   40        6.106951      6.106852  -0.000000  -0.000000
   41        6.384815      6.383308  -0.000000  -0.000000
   42        6.460112      6.459228  -0.000000  -0.000000
 
  0.5000000E+00 -0.2095258E+00  0.2095258E+00  0.6666667E-02
    1      -14.274414    -14.274408   1.000000   1.000000
    2      -14.261582    -14.261590   1.000000   1.000000
    3      -13.878480    -13.878481   1.000000   1.000000
    4      -13.843389    -13.843389   1.000000   1.000000
    5      -13.654042    -13.654047   1.000000   1.000000
    6      -13.579920    -13.579918   1.000000   1.000000
    7       -3.877148     -3.877172   1.000000   1.000000
    8       -3.682098     -3.682124   1.000000   1.000000
    9       -3.530916     -3.530946   1.000000   1.000000
   10       -3.457872     -3.457899   1.000000   1.000000
   11       -3.209984     -3.210015   1.000000   1.000000
   12       -3.048009     -3.048039   1.000000   1.000000
   13       -3.006931     -3.006961   1.000000   1.000000
   14       -2.925205     -2.925233   1.000000   1.000000
   15       -2.812204     -2.812236   1.000000   1.000000
   16       -2.375269     -2.375306   1.000000   1.000000
   17       -1.354871     -1.354871   1.000000   1.000000
   18       -1.209400     -1.209406   1.000000   1.000000
   19       -0.861796     -0.861806   1.000000   1.000000
   20       -0.366050     -0.366052   1.000000   1.000000
   21       -0.095781     -0.095784   1.000000   1.000000
   22        0.043392      0.043391   1.000000   1.000000
   23        0.285668      0.285660   1.000000   1.000000
   24        0.653108      0.653113   1.000000   1.000000
   25        0.664746      0.664755   1.000000   1.000000
   26        1.047803      1.047804   1.000000   1.000000
   27        1.351945      1.351946   1.000000   1.000000
   28        1.549883      1.549885   1.000000   1.000000
   29        1.718216      1.718210   1.000000   1.000000
   30        1.898526      1.898523   1.000000   1.000000
   31        2.372018      2.372017   1.000000   1.000000
   32        2.531991      2.531983   1.000001   1.000001
   33        2.597258      2.597253   1.000008   1.000008
   34        3.065838      3.065831   1.030174   1.030177
   35        5.484974      5.485006  -0.000000  -0.000000
   36        5.575747      5.575779  -0.000000  -0.000000
   37        5.656031      5.656060  -0.000000  -0.000000
   38        5.971519      5.971579  -0.000000  -0.000000
   39        6.004666      6.004699  -0.000000  -0.000000
   40        6.106106      6.106214  -0.000000  -0.000000
   41        6.385931      6.385495  -0.000000  -0.000000
   42        6.459526      6.459762  -0.000000  -0.000000
 
  0.5000000E+00 -0.2047638E+00  0.2047638E+00  0.6666667E-02
    1      -14.276480    -14.276474   1.000000   1.000000
    2      -14.263383    -14.263390   1.000000   1.000000
    3      -13.878242    -13.878243   1.000000   1.000000
    4      -13.838280    -13.838280   1.000000   1.000000
    5      -13.654750    -13.654755   1.000000   1.000000
    6      -13.580027    -13.580025   1.000000   1.000000
    7       -3.876222     -3.876245   1.000000   1.000000
    8       -3.678959     -3.678986   1.000000   1.000000
    9       -3.533128     -3.533158   1.000000   1.000000
   10       -3.463385     -3.463412   1.000000   1.000000
   11       -3.205719     -3.205750   1.000000   1.000000
   12       -3.045967     -3.045997   1.000000   1.000000
   13       -3.001892     -3.001922   1.000000   1.000000
   14       -2.927647     -2.927675   1.000000   1.000000
   15       -2.818134     -2.818166   1.000000   1.000000
   16       -2.373507     -2.373544   1.000000   1.000000
   17       -1.359264     -1.359265   1.000000   1.000000
   18       -1.216126     -1.216132   1.000000   1.000000
   19       -0.852258     -0.852268   1.000000   1.000000
   20       -0.378728     -0.378730   1.000000   1.000000
   21       -0.109270     -0.109273   1.000000   1.000000
   22        0.045817      0.045817   1.000000   1.000000
   23        0.280448      0.280441   1.000000   1.000000
   24        0.658785      0.658798   1.000000   1.000000
   25        0.666072      0.666072   1.000000   1.000000
   26        1.040727      1.040728   1.000000   1.000000
   27        1.368873      1.368873   1.000000   1.000000
   28        1.551317      1.551320   1.000000   1.000000
   29        1.720552      1.720545   1.000000   1.000000
   30        1.899981      1.899978   1.000000   1.000000
   31        2.375052      2.375051   1.000000   1.000000
   32        2.536754      2.536746   1.000001   1.000001
   33        2.603790      2.603785   1.000010   1.000010
   34        3.072892      3.072885   1.027364   1.027367
   35        5.481966      5.481998  -0.000000  -0.000000
   36        5.574834      5.574868  -0.000000  -0.000000
   37        5.649346      5.649376  -0.000000  -0.000000
   38        5.970749      5.970785  -0.000000  -0.000000
   39        6.006941      6.006975  -0.000000  -0.000000
   40        6.105313      6.105349  -0.000000  -0.000000
   41        6.388300      6.388061  -0.000000  -0.000000
   42        6.459207      6.459473  -0.000000  -0.000000
 
  0.5000000E+00 -0.2000019E+00  0.2000019E+00  0.6666667E-02
    1      -14.279040    -14.279035   1.000000   1.000000
    2      -14.265556    -14.265562   1.000000   1.000000
    3      -13.877595    -13.877596   1.000000   1.000000
    4      -13.832793    -13.832793   1.000000   1.000000
    5      -13.655483    -13.655488   1.000000   1.000000
    6      -13.580158    -13.580156   1.000000   1.000000
    7       -3.874976     -3.874999   1.000000   1.000000
    8       -3.675554     -3.675580   1.000000   1.000000
    9       -3.535179     -3.535209   1.000000   1.000000
   10       -3.468797     -3.468824   1.000000   1.000000
   11       -3.201409     -3.201439   1.000000   1.000000
   12       -3.045043     -3.045074   1.000000   1.000000
   13       -2.996635     -2.996665   1.000000   1.000000
   14       -2.930125     -2.930152   1.000000   1.000000
   15       -2.823403     -2.823435   1.000000   1.000000
   16       -2.372195     -2.372232   1.000000   1.000000
   17       -1.364261     -1.364262   1.000000   1.000000
   18       -1.221447     -1.221452   1.000000   1.000000
   19       -0.842558     -0.842567   1.000000   1.000000
   20       -0.393767     -0.393770   1.000000   1.000000
   21       -0.122912     -0.122915   1.000000   1.000000
   22        0.049803      0.049803   1.000000   1.000000
   23        0.276033      0.276025   1.000000   1.000000
   24        0.654156      0.654169   1.000000   1.000000
   25        0.677423      0.677425   1.000000   1.000000
   26        1.032122      1.032123   1.000000   1.000000
   27        1.386671      1.386671   1.000000   1.000000
   28        1.552366      1.552369   1.000000   1.000000
   29        1.722517      1.722511   1.000000   1.000000
   30        1.901899      1.901896   1.000000   1.000000
   31        2.378011      2.378010   1.000000   1.000000
   32        2.541044      2.541036   1.000001   1.000001
   33        2.610777      2.610772   1.000013   1.000013
   34        3.079944      3.079938   1.023822   1.023826
   35        5.479099      5.479132  -0.000000  -0.000000
   36        5.574431      5.574464  -0.000000  -0.000000
   37        5.642726      5.642752  -0.000000  -0.000000
   38        5.969988      5.970024  -0.000000  -0.000000
   39        6.009410      6.009439  -0.000000  -0.000000
   40        6.104466      6.104486  -0.000000  -0.000000
   41        6.390517      6.390650  -0.000000  -0.000000
   42        6.460779      6.459906  -0.000000  -0.000000
 
  0.5000000E+00 -0.1952399E+00  0.1952399E+00  0.6666667E-02
    1      -14.281941    -14.281936   1.000000   1.000000
    2      -14.267974    -14.267980   1.000000   1.000000
    3      -13.876474    -13.876475   1.000000   1.000000
    4      -13.826880    -13.826880   1.000000   1.000000
    5      -13.656173    -13.656178   1.000000   1.000000
    6      -13.580246    -13.580244   1.000000   1.000000
    7       -3.873421     -3.873445   1.000000   1.000000
    8       -3.671885     -3.671911   1.000000   1.000000
    9       -3.537083     -3.537113   1.000000   1.000000
   10       -3.474086     -3.474114   1.000000   1.000000
   11       -3.197081     -3.197111   1.000000   1.000000
   12       -3.045177     -3.045207   1.000000   1.000000
   13       -2.991311     -2.991342   1.000000   1.000000
   14       -2.932697     -2.932723   1.000000   1.000000
   15       -2.827808     -2.827840   1.000000   1.000000
   16       -2.371316     -2.371353   1.000000   1.000000
   17       -1.369936     -1.369938   1.000000   1.000000
   18       -1.225295     -1.225299   1.000000   1.000000
   19       -0.832738     -0.832748   1.000000   1.000000
   20       -0.411298     -0.411300   1.000000   1.000000
   21       -0.135991     -0.135994   1.000000   1.000000
   22        0.054891      0.054891   1.000000   1.000000
   23        0.272436      0.272429   1.000000   1.000000
   24        0.649218      0.649230   1.000000   1.000000
   25        0.688821      0.688823   1.000000   1.000000
   26        1.022141      1.022142   1.000000   1.000000
   27        1.405207      1.405206   1.000000   1.000000
   28        1.552949      1.552951   1.000000   1.000000
   29        1.724105      1.724098   1.000000   1.000000
   30        1.904352      1.904349   1.000000   1.000000
   31        2.380921      2.380920   1.000000   1.000000
   32        2.544894      2.544886   1.000001   1.000001
   33        2.618170      2.618165   1.000016   1.000016
   34        3.086963      3.086957   1.019506   1.019511
   35        5.476408      5.476441  -0.000000  -0.000000
   36        5.574474      5.574507  -0.000000  -0.000000
   37        5.636251      5.636281  -0.000000  -0.000000
   38        5.969192      5.969228  -0.000000  -0.000000
   39        6.012071      6.012105  -0.000000  -0.000000
   40        6.103540      6.103566  -0.000000  -0.000000
   41        6.393099      6.392769  -0.000000  -0.000000
   42        6.460461      6.460788  -0.000000  -0.000000
 
  0.5000000E+00 -0.1904780E+00  0.1904780E+00  0.6666667E-02
    1      -14.285154    -14.285149   1.000000   1.000000
    2      -14.270648    -14.270654   1.000000   1.000000
    3      -13.875002    -13.875003   1.000000   1.000000
    4      -13.820679    -13.820679   1.000000   1.000000
    5      -13.656841    -13.656846   1.000000   1.000000
    6      -13.580318    -13.580316   1.000000   1.000000
    7       -3.871569     -3.871592   1.000000   1.000000
    8       -3.667962     -3.667988   1.000000   1.000000
    9       -3.538857     -3.538886   1.000000   1.000000
   10       -3.479229     -3.479257   1.000000   1.000000
   11       -3.192772     -3.192802   1.000000   1.000000
   12       -3.046271     -3.046302   1.000000   1.000000
   13       -2.986150     -2.986180   1.000000   1.000000
   14       -2.935366     -2.935392   1.000000   1.000000
   15       -2.831161     -2.831192   1.000000   1.000000
   16       -2.370851     -2.370888   1.000000   1.000000
   17       -1.376322     -1.376325   1.000000   1.000000
   18       -1.227660     -1.227662   1.000000   1.000000
   19       -0.822854     -0.822864   1.000000   1.000000
   20       -0.431330     -0.431333   1.000000   1.000000
   21       -0.148042     -0.148045   1.000000   1.000000
   22        0.060762      0.060763   1.000000   1.000000
   23        0.269640      0.269633   1.000000   1.000000
   24        0.644294      0.644306   1.000000   1.000000
   25        0.699943      0.699945   1.000000   1.000000
   26        1.010918      1.010920   1.000000   1.000000
   27        1.424361      1.424361   1.000000   1.000000
   28        1.552981      1.552983   1.000000   1.000000
   29        1.725285      1.725278   1.000000   1.000000
   30        1.907399      1.907396   1.000000   1.000000
   31        2.383782      2.383781   1.000000   1.000000
   32        2.548308      2.548300   1.000002   1.000002
   33        2.625887      2.625882   1.000021   1.000021
   34        3.093895      3.093888   1.014410   1.014416
   35        5.473914      5.473947  -0.000000  -0.000000
   36        5.574849      5.574883  -0.000000  -0.000000
   37        5.630039      5.630068  -0.000000  -0.000000
   38        5.968358      5.968397  -0.000000  -0.000000
   39        6.014958      6.014976  -0.000000  -0.000000
   40        6.102612      6.102639  -0.000000  -0.000000
   41        6.394802      6.395192  -0.000000  -0.000000
   42        6.462045      6.461512  -0.000000  -0.000000
 
  0.5000000E+00 -0.1857160E+00  0.1857160E+00  0.6666667E-02
    1      -14.288738    -14.288734   1.000000   1.000000
    2      -14.273659    -14.273664   1.000000   1.000000
    3      -13.873143    -13.873144   1.000000   1.000000
    4      -13.814176    -13.814175   1.000000   1.000000
    5      -13.657514    -13.657520   1.000000   1.000000
    6      -13.580400    -13.580398   1.000000   1.000000
    7       -3.869429     -3.869453   1.000000   1.000000
    8       -3.663794     -3.663820   1.000000   1.000000
    9       -3.540524     -3.540554   1.000000   1.000000
   10       -3.484198     -3.484226   1.000000   1.000000
   11       -3.188524     -3.188554   1.000000   1.000000
   12       -3.048216     -3.048247   1.000000   1.000000
   13       -2.981490     -2.981521   1.000000   1.000000
   14       -2.937990     -2.938016   1.000000   1.000000
   15       -2.833314     -2.833346   1.000000   1.000000
   16       -2.370781     -2.370818   1.000000   1.000000
   17       -1.383399     -1.383404   1.000000   1.000000
   18       -1.228585     -1.228588   1.000000   1.000000
   19       -0.812973     -0.812983   1.000000   1.000000
   20       -0.453738     -0.453742   1.000000   1.000000
   21       -0.158819     -0.158822   1.000000   1.000000
   22        0.067207      0.067207   1.000000   1.000000
   23        0.267618      0.267612   1.000000   1.000000
   24        0.639435      0.639448   1.000000   1.000000
   25        0.710731      0.710733   1.000000   1.000000
   26        0.998591      0.998593   1.000000   1.000000
   27        1.444011      1.444010   1.000000   1.000000
   28        1.552409      1.552411   1.000000   1.000000
   29        1.726038      1.726032   1.000000   1.000000
   30        1.911093      1.911090   1.000000   1.000000
   31        2.386603      2.386602   1.000000   1.000000
   32        2.551303      2.551294   1.000002   1.000002
   33        2.633871      2.633866   1.000026   1.000026
   34        3.100662      3.100655   1.008579   1.008586
   35        5.471646      5.471678  -0.000000  -0.000000
   36        5.575394      5.575427  -0.000000  -0.000000
   37        5.624248      5.624281  -0.000000  -0.000000
   38        5.967460      5.967511  -0.000000  -0.000000
   39        6.017998      6.018046  -0.000000  -0.000000
   40        6.101660      6.101877  -0.000000  -0.000000
   41        6.396915      6.398341  -0.000000  -0.000000
   42        6.461174      6.464017  -0.000000  -0.000000
 
  0.5000000E+00 -0.1809541E+00  0.1809541E+00  0.6666667E-02
    1      -14.292629    -14.292625   1.000000   1.000000
    2      -14.276978    -14.276983   1.000000   1.000000
    3      -13.870971    -13.870972   1.000000   1.000000
    4      -13.807457    -13.807457   1.000000   1.000000
    5      -13.658216    -13.658222   1.000000   1.000000
    6      -13.580502    -13.580500   1.000000   1.000000
    7       -3.867017     -3.867040   1.000000   1.000000
    8       -3.659390     -3.659417   1.000000   1.000000
    9       -3.542114     -3.542144   1.000000   1.000000
   10       -3.488958     -3.488987   1.000000   1.000000
   11       -3.184386     -3.184416   1.000000   1.000000
   12       -3.050896     -3.050928   1.000000   1.000000
   13       -2.977867     -2.977898   1.000000   1.000000
   14       -2.940164     -2.940189   1.000000   1.000000
   15       -2.834189     -2.834220   1.000000   1.000000
   16       -2.371085     -2.371122   1.000000   1.000000
   17       -1.391115     -1.391120   1.000000   1.000000
   18       -1.228164     -1.228166   1.000000   1.000000
   19       -0.803180     -0.803189   1.000000   1.000000
   20       -0.478267     -0.478272   1.000000   1.000000
   21       -0.168247     -0.168251   1.000000   1.000000
   22        0.074078      0.074079   1.000000   1.000000
   23        0.266336      0.266329   1.000000   1.000000
   24        0.634670      0.634682   1.000000   1.000000
   25        0.721146      0.721148   1.000000   1.000000
   26        0.985281      0.985283   1.000000   1.000000
   27        1.464022      1.464021   1.000000   1.000000
   28        1.551217      1.551219   1.000000   1.000000
   29        1.726348      1.726342   1.000000   1.000000
   30        1.915461      1.915458   1.000000   1.000000
   31        2.389378      2.389377   1.000000   1.000000
   32        2.553884      2.553876   1.000002   1.000002
   33        2.642080      2.642074   1.000034   1.000034
   34        3.107227      3.107220   1.002065   1.002072
   35        5.469621      5.469654  -0.000000  -0.000000
   36        5.575859      5.575891  -0.000000  -0.000000
   37        5.619133      5.619165  -0.000000  -0.000000
   38        5.966467      5.966509  -0.000000  -0.000000