   2   2   1   0
  0.2042676E+02  0.3865878E-09  0.3865878E-09  0.3865878E-09  0.5000000E-15
  1.000000000000000E-004
  CAR 
 diamond Si                              
     30.52783507     -7.75434115  301      6.11994092      1.00000000
     -7.754  0.0000E+00  0.0000E+00
     -7.627  0.0000E+00  0.0000E+00
     -7.499  0.0000E+00  0.0000E+00
     -7.372  0.0000E+00  0.0000E+00
     -7.244  0.0000E+00  0.0000E+00
     -7.116  0.0000E+00  0.0000E+00
     -6.989  0.0000E+00  0.0000E+00
     -6.861  0.0000E+00  0.0000E+00
     -6.733  0.0000E+00  0.0000E+00
     -6.606  0.3263E-16  0.4163E-17
     -6.478  0.2104E-10  0.2685E-11
     -6.351  0.8547E-06  0.1091E-06
     -6.223  0.1571E-02  0.2006E-03
     -6.095  0.1532E+00  0.1974E-01
     -5.968  0.1135E+01  0.1645E+00
     -5.840  0.1260E+01  0.3253E+00
     -5.713  0.7771E+00  0.4244E+00
     -5.585  0.6036E+00  0.5015E+00
     -5.457  0.5171E+00  0.5675E+00
     -5.330  0.4647E+00  0.6268E+00
     -5.202  0.4209E+00  0.6805E+00
     -5.075  0.3939E+00  0.7307E+00
     -4.947  0.3754E+00  0.7786E+00
     -4.819  0.3429E+00  0.8224E+00
     -4.692  0.3438E+00  0.8663E+00
     -4.564  0.3279E+00  0.9081E+00
     -4.437  0.3089E+00  0.9475E+00
     -4.309  0.3185E+00  0.9882E+00
     -4.181  0.3087E+00  0.1028E+01
     -4.054  0.3015E+00  0.1066E+01
     -3.926  0.3359E+00  0.1109E+01
     -3.799  0.3694E+00  0.1156E+01
     -3.671  0.4536E+00  0.1214E+01
     -3.543  0.2482E+00  0.1246E+01
     -3.416  0.1317E+00  0.1262E+01
     -3.288  0.2137E+00  0.1290E+01
     -3.160  0.9822E-01  0.1302E+01
     -3.033  0.2000E+00  0.1328E+01
     -2.905  0.1680E+00  0.1349E+01
     -2.778  0.1110E+00  0.1363E+01
     -2.650  0.2946E+00  0.1401E+01
     -2.522  0.9602E+00  0.1523E+01
     -2.395  0.1487E+01  0.1713E+01
     -2.267  0.1023E+01  0.1844E+01
     -2.140  0.4605E+00  0.1902E+01
     -2.012  0.3393E+00  0.1946E+01
     -1.884  0.6045E+00  0.2023E+01
     -1.757  0.4141E+00  0.2076E+01
     -1.629  0.2471E+00  0.2107E+01
     -1.502  0.3345E+00  0.2150E+01
     -1.374  0.4569E+00  0.2208E+01
     -1.246  0.7379E+00  0.2302E+01
     -1.119  0.1123E+01  0.2446E+01
     -0.991  0.1435E+01  0.2629E+01
     -0.864  0.6004E+00  0.2705E+01
     -0.736  0.2081E+00  0.2732E+01
     -0.608  0.3564E+00  0.2777E+01
     -0.481  0.1864E+00  0.2801E+01
     -0.353  0.1840E+00  0.2825E+01
     -0.226  0.2628E+00  0.2858E+01
     -0.098  0.1915E+00  0.2883E+01
      0.030  0.2250E+00  0.2911E+01
      0.157  0.1341E+00  0.2928E+01
      0.285  0.2356E+00  0.2959E+01
      0.413  0.2304E+00  0.2988E+01
      0.540  0.1082E+00  0.3002E+01
      0.668  0.1838E+00  0.3025E+01
      0.795  0.2521E+00  0.3057E+01
      0.923  0.1397E+00  0.3075E+01
      1.051  0.1324E+00  0.3092E+01
      1.178  0.2047E+00  0.3118E+01
      1.306  0.2172E+00  0.3146E+01
      1.433  0.3833E+00  0.3195E+01
      1.561  0.1266E+01  0.3356E+01
      1.689  0.1149E+01  0.3503E+01
      1.816  0.6220E+00  0.3582E+01
      1.944  0.4742E+00  0.3643E+01
      2.071  0.4503E+00  0.3700E+01
      2.199  0.4916E+00  0.3763E+01
      2.327  0.4525E+00  0.3821E+01
      2.454  0.4968E+00  0.3884E+01
      2.582  0.1078E+01  0.4022E+01
      2.709  0.1128E+01  0.4166E+01
      2.837  0.9067E+00  0.4281E+01
      2.965  0.1364E+01  0.4456E+01
      3.092  0.1909E+01  0.4699E+01
      3.220  0.1233E+01  0.4857E+01
      3.347  0.9828E+00  0.4982E+01
      3.475  0.1062E+01  0.5118E+01
      3.603  0.9092E+00  0.5234E+01
      3.730  0.6987E+00  0.5323E+01
      3.858  0.5711E+00  0.5396E+01
      3.986  0.7056E+00  0.5486E+01
      4.113  0.6337E+00  0.5566E+01
      4.241  0.4658E+00  0.5626E+01
      4.368  0.6534E+00  0.5709E+01
      4.496  0.6388E+00  0.5791E+01
      4.624  0.8846E+00  0.5904E+01
      4.751  0.1934E+01  0.6151E+01
      4.879  0.1630E+01  0.6359E+01
      5.006  0.1287E+01  0.6523E+01
      5.134  0.1188E+01  0.6674E+01
      5.262  0.1136E+01  0.6819E+01
      5.389  0.1154E+01  0.6966E+01
      5.517  0.1287E+01  0.7131E+01
      5.644  0.1338E+01  0.7301E+01
      5.772  0.2086E+01  0.7568E+01
      5.900  0.2663E+01  0.7907E+01
      6.027  0.7089E+00  0.7998E+01
      6.155  0.1810E-01  0.8000E+01
      6.282  0.8992E-01  0.8012E+01
      6.410  0.6993E+00  0.8101E+01
      6.538  0.1273E+01  0.8263E+01
      6.665  0.9632E+00  0.8386E+01
      6.793  0.6470E+00  0.8469E+01
      6.920  0.6144E+00  0.8547E+01
      7.048  0.7946E+00  0.8649E+01
      7.176  0.7972E+00  0.8750E+01
      7.303  0.1058E+01  0.8885E+01
      7.431  0.1252E+01  0.9045E+01
      7.559  0.9436E+00  0.9165E+01
      7.686  0.9010E+00  0.9280E+01
      7.814  0.7820E+00  0.9380E+01
      7.941  0.7744E+00  0.9479E+01
      8.069  0.8307E+00  0.9585E+01
      8.197  0.8752E+00  0.9697E+01
      8.324  0.2244E+01  0.9983E+01
      8.452  0.3274E+01  0.1040E+02
      8.579  0.2046E+01  0.1066E+02
      8.707  0.1858E+01  0.1090E+02
      8.835  0.1657E+01  0.1111E+02
      8.962  0.1449E+01  0.1130E+02
      9.090  0.2235E+01  0.1158E+02
      9.217  0.3121E+01  0.1198E+02
      9.345  0.2560E+01  0.1231E+02
      9.473  0.1208E+01  0.1246E+02
      9.600  0.9059E+00  0.1258E+02
      9.728  0.7048E+00  0.1267E+02
      9.855  0.6382E+00  0.1275E+02
      9.983  0.1051E+01  0.1288E+02
     10.111  0.9227E+00  0.1300E+02
     10.238  0.5099E+00  0.1306E+02
     10.366  0.6798E+00  0.1315E+02
     10.493  0.9066E+00  0.1327E+02
     10.621  0.4690E+00  0.1333E+02
     10.749  0.7404E+00  0.1342E+02
     10.876  0.7686E+00  0.1352E+02
     11.004  0.6908E+00  0.1361E+02
     11.132  0.3778E+00  0.1365E+02
     11.259  0.4629E+00  0.1371E+02
     11.387  0.9805E+00  0.1384E+02
     11.514  0.9939E+00  0.1397E+02
     11.642  0.5911E+00  0.1404E+02
     11.770  0.7643E+00  0.1414E+02
     11.897  0.1270E+01  0.1430E+02
     12.025  0.1154E+01  0.1445E+02
     12.152  0.7551E+00  0.1454E+02
     12.280  0.1110E+01  0.1469E+02
     12.408  0.9227E+00  0.1480E+02
     12.535  0.1004E+01  0.1493E+02
     12.663  0.7187E+00  0.1502E+02
     12.790  0.1392E+01  0.1520E+02
     12.918  0.2052E+01  0.1546E+02
     13.046  0.1533E+01  0.1566E+02
     13.173  0.1636E+01  0.1587E+02
     13.301  0.1853E+01  0.1610E+02
     13.428  0.2520E+01  0.1643E+02
     13.556  0.3456E+01  0.1687E+02
     13.684  0.2500E+01  0.1719E+02
     13.811  0.1772E+01  0.1741E+02
     13.939  0.1463E+01  0.1760E+02
     14.066  0.1118E+01  0.1774E+02
     14.194  0.1343E+01  0.1791E+02
     14.322  0.1302E+01  0.1808E+02
     14.449  0.1004E+01  0.1821E+02
     14.577  0.1208E+01  0.1836E+02
     14.705  0.1583E+01  0.1856E+02
     14.832  0.1483E+01  0.1875E+02
     14.960  0.9659E+00  0.1887E+02
     15.087  0.1008E+01  0.1900E+02
     15.215  0.1179E+01  0.1915E+02
     15.343  0.9189E+00  0.1927E+02
     15.470  0.7591E+00  0.1937E+02
     15.598  0.1197E+01  0.1952E+02
     15.725  0.1505E+01  0.1971E+02
     15.853  0.1263E+01  0.1987E+02
     15.981  0.5568E+00  0.1995E+02
     16.108  0.7792E+00  0.2004E+02
     16.236  0.8943E+00  0.2016E+02
     16.363  0.1319E+01  0.2033E+02
     16.491  0.1058E+01  0.2046E+02
     16.619  0.7105E+00  0.2055E+02
     16.746  0.1734E+01  0.2077E+02
     16.874  0.3516E+01  0.2122E+02
     17.001  0.3721E+01  0.2170E+02
     17.129  0.2075E+01  0.2196E+02
     17.257  0.1408E+01  0.2214E+02
     17.384  0.1635E+01  0.2235E+02
     17.512  0.1183E+01  0.2250E+02
     17.640  0.6750E+00  0.2259E+02
     17.767  0.9490E+00  0.2271E+02
     17.895  0.1661E+01  0.2292E+02
     18.022  0.1664E+01  0.2313E+02
     18.150  0.1132E+01  0.2328E+02
     18.278  0.1748E+01  0.2350E+02
     18.405  0.1527E+01  0.2370E+02
     18.533  0.1482E+01  0.2389E+02
     18.660  0.1500E+01  0.2408E+02
     18.788  0.1649E+01  0.2429E+02
     18.916  0.1741E+01  0.2451E+02
     19.043  0.1454E+01  0.2469E+02
     19.171  0.2194E+01  0.2497E+02
     19.298  0.1951E+01  0.2522E+02
     19.426  0.1298E+01  0.2539E+02
     19.554  0.1274E+01  0.2555E+02
     19.681  0.1330E+01  0.2572E+02
     19.809  0.8697E+00  0.2583E+02
     19.936  0.8093E+00  0.2594E+02
     20.064  0.9592E+00  0.2606E+02
     20.192  0.1071E+01  0.2619E+02
     20.319  0.7497E+00  0.2629E+02
     20.447  0.1129E+01  0.2643E+02
     20.574  0.1724E+01  0.2665E+02
     20.702  0.1756E+01  0.2688E+02
     20.830  0.1110E+01  0.2702E+02
     20.957  0.1049E+01  0.2715E+02
     21.085  0.1888E+01  0.2740E+02
     21.213  0.1204E+01  0.2755E+02
     21.340  0.9026E+00  0.2766E+02
     21.468  0.1261E+01  0.2782E+02
     21.595  0.1080E+01  0.2796E+02
     21.723  0.1273E+01  0.2813E+02
     21.851  0.1282E+01  0.2829E+02
     21.978  0.9911E+00  0.2842E+02
     22.106  0.1329E+01  0.2858E+02
     22.233  0.1038E+01  0.2872E+02
     22.361  0.1939E+01  0.2896E+02
     22.489  0.1298E+01  0.2913E+02
     22.616  0.1199E+01  0.2928E+02
     22.744  0.1623E+01  0.2949E+02
     22.871  0.1504E+01  0.2968E+02
     22.999  0.1547E+01  0.2988E+02
     23.127  0.1030E+01  0.3001E+02
     23.254  0.9980E+00  0.3014E+02
     23.382  0.1888E+01  0.3038E+02
     23.509  0.1227E+01  0.3054E+02
     23.637  0.7654E+00  0.3063E+02
     23.765  0.1419E+01  0.3081E+02
     23.892  0.1149E+01  0.3096E+02
     24.020  0.1581E+01  0.3116E+02
     24.147  0.1171E+01  0.3131E+02
     24.275  0.1169E+01  0.3146E+02
     24.403  0.2048E+01  0.3172E+02
     24.530  0.2371E+01  0.3203E+02
     24.658  0.2037E+01  0.3229E+02
     24.786  0.1202E+01  0.3244E+02
     24.913  0.9787E+00  0.3256E+02
     25.041  0.9230E+00  0.3268E+02
     25.168  0.1067E+01  0.3282E+02
     25.296  0.1824E+01  0.3305E+02
     25.424  0.1778E+01  0.3328E+02
     25.551  0.1463E+01  0.3346E+02
     25.679  0.1398E+01  0.3364E+02
     25.806  0.1027E+01  0.3377E+02
     25.934  0.1441E+01  0.3396E+02
     26.062  0.1106E+01  0.3410E+02
     26.189  0.6947E+00  0.3419E+02
     26.317  0.4554E+00  0.3425E+02
     26.444  0.5955E+00  0.3432E+02
     26.572  0.8442E+00  0.3443E+02
     26.700  0.8484E+00  0.3454E+02
     26.827  0.7334E+00  0.3463E+02
     26.955  0.6163E+00  0.3471E+02
     27.082  0.4778E+00  0.3477E+02
     27.210  0.4561E+00  0.3483E+02
     27.338  0.7254E+00  0.3492E+02
     27.465  0.6215E+00  0.3500E+02
     27.593  0.2230E+00  0.3503E+02
     27.720  0.2661E+00  0.3506E+02
     27.848  0.7540E+00  0.3516E+02
     27.976  0.6358E+00  0.3524E+02
     28.103  0.4588E+00  0.3530E+02
     28.231  0.3323E+00  0.3534E+02
     28.359  0.6271E+00  0.3542E+02
     28.486  0.6306E+00  0.3550E+02
     28.614  0.1113E+01  0.3564E+02
     28.741  0.1875E+01  0.3588E+02
     28.869  0.8605E+00  0.3599E+02
     28.997  0.5422E-01  0.3600E+02
     29.124  0.3792E-03  0.3600E+02
     29.252  0.1998E-06  0.3600E+02
     29.379  0.5228E-11  0.3600E+02
     29.507  0.0000E+00  0.3600E+02
     29.635  0.0000E+00  0.3600E+02
     29.762  0.0000E+00  0.3600E+02
     29.890  0.0000E+00  0.3600E+02
     30.017  0.0000E+00  0.3600E+02
     30.145  0.0000E+00  0.3600E+02
     30.273  0.0000E+00  0.3600E+02
     30.400  0.0000E+00  0.3600E+02
     30.528  0.0000E+00  0.3600E+02
     30.52783507     -7.75434115  301      6.11994092      1.00000000
     -7.754  0.0000E+00  0.0000E+00  0.0000E+00  0.0000E+00  0.0000E+00  0.0000E+00  0.0000E+00  0.0000E+00  0.0000E+00
     -7.627  0.0000E+00  0.0000E+00  0.0000E+00  0.0000E+00  0.0000E+00  0.0000E+00  0.0000E+00  0.0000E+00  0.0000E+00
     -7.499  0.0000E+00  0.0000E+00  0.0000E+00  0.0000E+00  0.0000E+00  0.0000E+00  0.0000E+00  0.0000E+00  0.0000E+00
     -7.372  0.0000E+00  0.0000E+00  0.0000E+00  0.0000E+00  0.0000E+00  0.0000E+00  0.0000E+00  0.0000E+00  0.0000E+00
     -7.244  0.0000E+00  0.0000E+00  0.0000E+00  0.0000E+00  0.0000E+00  0.0000E+00  0.0000E+00  0.0000E+00  0.0000E+00
     -7.116  0.0000E+00  0.0000E+00  0.0000E+00  0.0000E+00  0.0000E+00  0.0000E+00  0.0000E+00  0.0000E+00  0.0000E+00
     -6.989  0.0000E+00  0.0000E+00  0.0000E+00  0.0000E+00  0.0000E+00  0.0000E+00  0.0000E+00  0.0000E+00  0.0000E+00
     -6.861  0.0000E+00  0.0000E+00  0.0000E+00  0.0000E+00  0.0000E+00  0.0000E+00  0.0000E+00  0.0000E+00  0.0000E+00
     -6.733  0.0000E+00  0.0000E+00  0.0000E+00  0.0000E+00  0.0000E+00  0.0000E+00  0.0000E+00  0.0000E+00  0.0000E+00
     -6.606  0.6857E-17  0.4255E-30  0.3375E-30  0.3845E-30  0.0000E+00  0.0000E+00  0.0000E+00  0.0000E+00  0.0000E+00
     -6.478  0.4422E-11  0.9170E-16  0.2038E-15  0.4429E-15  0.0000E+00  0.0000E+00  0.0000E+00  0.0000E+00  0.0000E+00
     -6.351  0.1796E-06  0.5201E-11  0.1162E-10  0.2522E-10  0.0000E+00  0.0000E+00  0.0000E+00  0.0000E+00  0.0000E+00
     -6.223  0.3301E-03  0.1475E-07  0.3290E-07  0.7142E-07  0.0000E+00  0.0000E+00  0.0000E+00  0.0000E+00  0.0000E+00
     -6.095  0.3218E-01  0.2595E-05  0.5773E-05  0.1254E-04  0.0000E+00  0.0000E+00  0.0000E+00  0.0000E+00  0.0000E+00
     -5.968  0.2383E+00  0.4394E-04  0.9742E-04  0.2118E-03  0.0000E+00  0.0000E+00  0.0000E+00  0.0000E+00  0.0000E+00
     -5.840  0.2643E+00  0.1476E-03  0.3256E-03  0.7089E-03  0.0000E+00  0.0000E+00  0.0000E+00  0.0000E+00  0.0000E+00
     -5.713  0.1626E+00  0.2313E-03  0.5060E-03  0.1105E-02  0.0000E+00  0.0000E+00  0.0000E+00  0.0000E+00  0.0000E+00
     -5.585  0.1260E+00  0.2909E-03  0.6279E-03  0.1382E-02  0.0000E+00  0.0000E+00  0.0000E+00  0.0000E+00  0.0000E+00
     -5.457  0.1076E+00  0.3398E-03  0.7279E-03  0.1600E-02  0.0000E+00  0.0000E+00  0.0000E+00  0.0000E+00  0.0000E+00
     -5.330  0.9651E-01  0.3825E-03  0.8296E-03  0.1796E-02  0.0000E+00  0.0000E+00  0.0000E+00  0.0000E+00  0.0000E+00
     -5.202  0.8724E-01  0.4191E-03  0.8552E-03  0.1999E-02  0.0000E+00  0.0000E+00  0.0000E+00  0.0000E+00  0.0000E+00
     -5.075  0.8152E-01  0.4678E-03  0.9749E-03  0.2093E-02  0.0000E+00  0.0000E+00  0.0000E+00  0.0000E+00  0.0000E+00
     -4.947  0.7758E-01  0.5088E-03  0.1038E-02  0.2300E-02  0.0000E+00  0.0000E+00  0.0000E+00  0.0000E+00  0.0000E+00
     -4.819  0.7076E-01  0.5056E-03  0.9886E-03  0.2422E-02  0.0000E+00  0.0000E+00  0.0000E+00  0.0000E+00  0.0000E+00
     -4.692  0.7098E-01  0.5957E-03  0.1222E-02  0.2456E-02  0.0000E+00  0.0000E+00  0.0000E+00  0.0000E+00  0.0000E+00
     -4.564  0.6761E-01  0.6090E-03  0.1066E-02  0.2817E-02  0.0000E+00  0.0000E+00  0.0000E+00  0.0000E+00  0.0000E+00
     -4.437  0.6381E-01  0.6328E-03  0.1298E-02  0.2556E-02  0.0000E+00  0.0000E+00  0.0000E+00  0.0000E+00  0.0000E+00
     -4.309  0.6579E-01  0.7051E-03  0.1179E-02  0.3093E-02  0.0000E+00  0.0000E+00  0.0000E+00  0.0000E+00  0.0000E+00
     -4.181  0.6404E-01  0.7685E-03  0.1372E-02  0.2902E-02  0.0000E+00  0.0000E+00  0.0000E+00  0.0000E+00  0.0000E+00
     -4.054  0.6270E-01  0.7876E-03  0.1349E-02  0.3016E-02  0.0000E+00  0.0000E+00  0.0000E+00  0.0000E+00  0.0000E+00
     -3.926  0.7023E-01  0.9337E-03  0.1366E-02  0.3644E-02  0.0000E+00  0.0000E+00  0.0000E+00  0.0000E+00  0.0000E+00
     -3.799  0.7874E-01  0.1283E-02  0.1953E-02  0.2975E-02  0.0000E+00  0.0000E+00  0.0000E+00  0.0000E+00  0.0000E+00
     -3.671  0.9707E-01  0.1435E-02  0.1699E-02  0.4750E-02  0.0000E+00  0.0000E+00  0.0000E+00  0.0000E+00  0.0000E+00
     -3.543  0.5240E-01  0.8341E-03  0.1459E-02  0.2565E-02  0.0000E+00  0.0000E+00  0.0000E+00  0.0000E+00  0.0000E+00
     -3.416  0.2669E-01  0.2289E-03  0.4540E-03  0.2695E-02  0.0000E+00  0.0000E+00  0.0000E+00  0.0000E+00  0.0000E+00
     -3.288  0.4361E-01  0.6389E-03  0.9917E-03  0.3874E-02  0.0000E+00  0.0000E+00  0.0000E+00  0.0000E+00  0.0000E+00
     -3.160  0.2029E-01  0.4407E-03  0.6553E-03  0.1395E-02  0.0000E+00  0.0000E+00  0.0000E+00  0.0000E+00  0.0000E+00
     -3.033  0.4063E-01  0.7507E-03  0.7623E-03  0.4285E-02  0.0000E+00  0.0000E+00  0.0000E+00  0.0000E+00  0.0000E+00
     -2.905  0.3449E-01  0.8565E-03  0.8400E-03  0.3033E-02  0.0000E+00  0.0000E+00  0.0000E+00  0.0000E+00  0.0000E+00
     -2.778  0.2311E-01  0.1001E-02  0.6502E-03  0.1586E-02  0.0000E+00  0.0000E+00  0.0000E+00  0.0000E+00  0.0000E+00
     -2.650  0.6020E-01  0.2012E-02  0.9479E-03  0.6419E-02  0.0000E+00  0.0000E+00  0.0000E+00  0.0000E+00  0.0000E+00
     -2.522  0.1991E+00  0.9839E-02  0.2094E-02  0.1870E-01  0.0000E+00  0.0000E+00  0.0000E+00  0.0000E+00  0.0000E+00
     -2.395  0.3076E+00  0.1653E-01  0.3314E-02  0.2869E-01  0.0000E+00  0.0000E+00  0.0000E+00  0.0000E+00  0.0000E+00
     -2.267  0.2082E+00  0.1077E-01  0.2138E-02  0.2299E-01  0.0000E+00  0.0000E+00  0.0000E+00  0.0000E+00  0.0000E+00
     -2.140  0.9105E-01  0.2235E-02  0.4231E-03  0.1517E-01  0.0000E+00  0.0000E+00  0.0000E+00  0.0000E+00  0.0000E+00
     -2.012  0.6544E-01  0.1319E-03  0.1239E-04  0.1429E-01  0.0000E+00  0.0000E+00  0.0000E+00  0.0000E+00  0.0000E+00
     -1.884  0.1159E+00  0.2010E-04  0.6923E-06  0.2664E-01  0.0000E+00  0.0000E+00  0.0000E+00  0.0000E+00  0.0000E+00
     -1.757  0.7933E-01  0.4135E-04  0.3215E-06  0.1853E-01  0.0000E+00  0.0000E+00  0.0000E+00  0.0000E+00  0.0000E+00
     -1.629  0.4728E-01  0.1522E-03  0.4847E-06  0.1133E-01  0.0000E+00  0.0000E+00  0.0000E+00  0.0000E+00  0.0000E+00
     -1.502  0.6390E-01  0.5440E-03  0.2220E-04  0.1548E-01  0.0000E+00  0.0000E+00  0.0000E+00  0.0000E+00  0.0000E+00
     -1.374  0.8633E-01  0.6433E-02  0.7261E-03  0.1575E-01  0.0000E+00  0.0000E+00  0.0000E+00  0.0000E+00  0.0000E+00
     -1.246  0.1372E+00  0.2105E-01  0.2516E-02  0.1533E-01  0.0000E+00  0.0000E+00  0.0000E+00  0.0000E+00  0.0000E+00
     -1.119  0.2031E+00  0.3123E-01  0.5423E-02  0.2645E-01  0.0000E+00  0.0000E+00  0.0000E+00  0.0000E+00  0.0000E+00
     -0.991  0.2483E+00  0.3770E-01  0.1036E-01  0.3857E-01  0.0000E+00  0.0000E+00  0.0000E+00  0.0000E+00  0.0000E+00
     -0.864  0.9649E-01  0.1807E-01  0.7130E-02  0.1461E-01  0.0000E+00  0.0000E+00  0.0000E+00  0.0000E+00  0.0000E+00
     -0.736  0.2912E-01  0.6416E-02  0.3943E-02  0.5536E-02  0.0000E+00  0.0000E+00  0.0000E+00  0.0000E+00  0.0000E+00
     -0.608  0.5512E-01  0.8548E-02  0.4930E-02  0.1200E-01  0.0000E+00  0.0000E+00  0.0000E+00  0.0000E+00  0.0000E+00
     -0.481  0.2732E-01  0.4841E-02  0.3136E-02  0.6026E-02  0.0000E+00  0.0000E+00  0.0000E+00  0.0000E+00  0.0000E+00
     -0.353  0.2653E-01  0.6598E-02  0.3751E-02  0.4101E-02  0.0000E+00  0.0000E+00  0.0000E+00  0.0000E+00  0.0000E+00
     -0.226  0.3808E-01  0.6509E-02  0.4614E-02  0.9502E-02  0.0000E+00  0.0000E+00  0.0000E+00  0.0000E+00  0.0000E+00
     -0.098  0.3174E-01  0.3286E-02  0.1864E-02  0.8468E-02  0.0000E+00  0.0000E+00  0.0000E+00  0.0000E+00  0.0000E+00
      0.030  0.3111E-01  0.7751E-02  0.5177E-02  0.5892E-02  0.0000E+00  0.0000E+00  0.0000E+00  0.0000E+00  0.0000E+00
      0.157  0.1734E-01  0.3796E-02  0.3221E-02  0.4777E-02  0.0000E+00  0.0000E+00  0.0000E+00  0.0000E+00  0.0000E+00
      0.285  0.3878E-01  0.4392E-02  0.2551E-02  0.1084E-01  0.0000E+00  0.0000E+00  0.0000E+00  0.0000E+00  0.0000E+00
      0.413  0.3212E-01  0.6399E-02  0.4936E-02  0.8496E-02  0.0000E+00  0.0000E+00  0.0000E+00  0.0000E+00  0.0000E+00
      0.540  0.1263E-01  0.3580E-02  0.3266E-02  0.3543E-02  0.0000E+00  0.0000E+00  0.0000E+00  0.0000E+00  0.0000E+00
      0.668  0.2866E-01  0.4608E-02  0.3032E-02  0.7573E-02  0.0000E+00  0.0000E+00  0.0000E+00  0.0000E+00  0.0000E+00
      0.795  0.3729E-01  0.4940E-02  0.4069E-02  0.1268E-01  0.0000E+00  0.0000E+00  0.0000E+00  0.0000E+00  0.0000E+00
      0.923  0.1636E-01  0.4274E-02  0.4119E-02  0.5426E-02  0.0000E+00  0.0000E+00  0.0000E+00  0.0000E+00  0.0000E+00
      1.051  0.1874E-01  0.4434E-02  0.3450E-02  0.4315E-02  0.0000E+00  0.0000E+00  0.0000E+00  0.0000E+00  0.0000E+00
      1.178  0.3081E-01  0.3720E-02  0.3088E-02  0.1138E-01  0.0000E+00  0.0000E+00  0.0000E+00  0.0000E+00  0.0000E+00
      1.306  0.2700E-01  0.5183E-02  0.5087E-02  0.1137E-01  0.0000E+00  0.0000E+00  0.0000E+00  0.0000E+00  0.0000E+00
      1.433  0.1644E-01  0.1800E-01  0.1681E-01  0.1661E-01  0.0000E+00  0.0000E+00  0.0000E+00  0.0000E+00  0.0000E+00
      1.561  0.2149E-01  0.6234E-01  0.6175E-01  0.5952E-01  0.0000E+00  0.0000E+00  0.0000E+00  0.0000E+00  0.0000E+00
      1.689  0.3246E-01  0.5446E-01  0.5223E-01  0.5544E-01  0.0000E+00  0.0000E+00  0.0000E+00  0.0000E+00  0.0000E+00
      1.816  0.2313E-01  0.3393E-01  0.2818E-01  0.2438E-01  0.0000E+00  0.0000E+00  0.0000E+00  0.0000E+00  0.0000E+00
      1.944  0.1965E-01  0.2779E-01  0.2274E-01  0.1562E-01  0.0000E+00  0.0000E+00  0.0000E+00  0.0000E+00  0.0000E+00
      2.071  0.1944E-01  0.2602E-01  0.1949E-01  0.1772E-01  0.0000E+00  0.0000E+00  0.0000E+00  0.0000E+00  0.0000E+00
      2.199  0.3116E-01  0.2410E-01  0.1974E-01  0.2194E-01  0.0000E+00  0.0000E+00  0.0000E+00  0.0000E+00  0.0000E+00
      2.327  0.1945E-01  0.2854E-01  0.2223E-01  0.1446E-01  0.0000E+00  0.0000E+00  0.0000E+00  0.0000E+00  0.0000E+00
      2.454  0.1640E-01  0.3036E-01  0.3037E-01  0.1483E-01  0.0000E+00  0.0000E+00  0.0000E+00  0.0000E+00  0.0000E+00
      2.582  0.2248E-01  0.6170E-01  0.7120E-01  0.3885E-01  0.0000E+00  0.0000E+00  0.0000E+00  0.0000E+00  0.0000E+00
      2.709  0.2642E-01  0.6612E-01  0.7601E-01  0.3868E-01  0.0000E+00  0.0000E+00  0.0000E+00  0.0000E+00  0.0000E+00
      2.837  0.1651E-01  0.5929E-01  0.6941E-01  0.2416E-01  0.0000E+00  0.0000E+00  0.0000E+00  0.0000E+00  0.0000E+00
      2.965  0.1676E-01  0.1069E+00  0.1115E+00  0.2555E-01  0.0000E+00  0.0000E+00  0.0000E+00  0.0000E+00  0.0000E+00
      3.092  0.2368E-01  0.1559E+00  0.1650E+00  0.3038E-01  0.0000E+00  0.0000E+00  0.0000E+00  0.0000E+00  0.0000E+00
      3.220  0.1810E-01  0.9381E-01  0.1025E+00  0.2712E-01  0.0000E+00  0.0000E+00  0.0000E+00  0.0000E+00  0.0000E+00
      3.347  0.1444E-01  0.6290E-01  0.8089E-01  0.3408E-01  0.0000E+00  0.0000E+00  0.0000E+00  0.0000E+00  0.0000E+00
      3.475  0.1767E-01  0.4297E-01  0.9125E-01  0.6151E-01  0.0000E+00  0.0000E+00  0.0000E+00  0.0000E+00  0.0000E+00
      3.603  0.2079E-01  0.4625E-01  0.6857E-01  0.4839E-01  0.0000E+00  0.0000E+00  0.0000E+00  0.0000E+00  0.0000E+00
      3.730  0.1194E-01  0.4522E-01  0.5522E-01  0.2660E-01  0.0000E+00  0.0000E+00  0.0000E+00  0.0000E+00  0.0000E+00
      3.858  0.1196E-01  0.3205E-01  0.4851E-01  0.2392E-01  0.0000E+00  0.0000E+00  0.0000E+00  0.0000E+00  0.0000E+00
      3.986  0.2208E-01  0.3928E-01  0.4758E-01  0.3733E-01  0.0000E+00  0.0000E+00  0.0000E+00  0.0000E+00  0.0000E+00
      4.113  0.1384E-01  0.3931E-01  0.4717E-01  0.2888E-01  0.0000E+00  0.0000E+00  0.0000E+00  0.0000E+00  0.0000E+00
      4.241  0.7677E-02  0.2815E-01  0.3948E-01  0.1944E-01  0.0000E+00  0.0000E+00  0.0000E+00  0.0000E+00  0.0000E+00
      4.368  0.1458E-01  0.4054E-01  0.4724E-01  0.3213E-01  0.0000E+00  0.0000E+00  0.0000E+00  0.0000E+00  0.0000E+00
      4.496  0.1939E-01  0.3275E-01  0.4383E-01  0.3902E-01  0.0000E+00  0.0000E+00  0.0000E+00  0.0000E+00  0.0000E+00
      4.624  0.8108E-02  0.5874E-01  0.6884E-01  0.5028E-01  0.0000E+00  0.0000E+00  0.0000E+00  0.0000E+00  0.0000E+00
      4.751  0.7560E-02  0.1389E+00  0.1399E+00  0.1230E+00  0.0000E+00  0.0000E+00  0.0000E+00  0.0000E+00  0.0000E+00
      4.879  0.1588E-01  0.1017E+00  0.1149E+00  0.1155E+00  0.0000E+00  0.0000E+00  0.0000E+00  0.0000E+00  0.0000E+00
      5.006  0.1022E-01  0.8406E-01  0.9727E-01  0.8038E-01  0.0000E+00  0.0000E+00  0.0000E+00  0.0000E+00  0.0000E+00
      5.134  0.7437E-02  0.8498E-01  0.8467E-01  0.7205E-01  0.0000E+00  0.0000E+00  0.0000E+00  0.0000E+00  0.0000E+00
      5.262  0.9424E-02  0.6948E-01  0.8248E-01  0.7912E-01  0.0000E+00  0.0000E+00  0.0000E+00  0.0000E+00  0.0000E+00
      5.389  0.7726E-02  0.7481E-01  0.8572E-01  0.7563E-01  0.0000E+00  0.0000E+00  0.0000E+00  0.0000E+00  0.0000E+00
      5.517  0.7360E-02  0.8475E-01  0.9678E-01  0.8356E-01  0.0000E+00  0.0000E+00  0.0000E+00  0.0000E+00  0.0000E+00
      5.644  0.5343E-02  0.8666E-01  0.9745E-01  0.9509E-01  0.0000E+00  0.0000E+00  0.0000E+00  0.0000E+00  0.0000E+00
      5.772  0.3735E-02  0.1325E+00  0.1608E+00  0.1473E+00  0.0000E+00  0.0000E+00  0.0000E+00  0.0000E+00  0.0000E+00
      5.900  0.1873E-02  0.1721E+00  0.2011E+00  0.1931E+00  0.0000E+00  0.0000E+00  0.0000E+00  0.0000E+00  0.0000E+00
      6.027  0.9946E-04  0.4605E-01  0.5363E-01  0.5148E-01  0.0000E+00  0.0000E+00  0.0000E+00  0.0000E+00  0.0000E+00
      6.155  0.5653E-04  0.1104E-02  0.1279E-02  0.1299E-02  0.0000E+00  0.0000E+00  0.0000E+00  0.0000E+00  0.0000E+00
      6.282  0.4761E-02  0.1672E-05  0.1930E-05  0.3896E-02  0.0000E+00  0.0000E+00  0.0000E+00  0.0000E+00  0.0000E+00
      6.410  0.3675E-01  0.1950E-04  0.2670E-04  0.2977E-01  0.0000E+00  0.0000E+00  0.0000E+00  0.0000E+00  0.0000E+00
      6.538  0.6576E-01  0.2785E-03  0.3825E-03  0.5125E-01  0.0000E+00  0.0000E+00  0.0000E+00  0.0000E+00  0.0000E+00
      6.665  0.4852E-01  0.8160E-03  0.1132E-02  0.3905E-01  0.0000E+00  0.0000E+00  0.0000E+00  0.0000E+00  0.0000E+00
      6.793  0.3136E-01  0.1307E-02  0.1738E-02  0.2755E-01  0.0000E+00  0.0000E+00  0.0000E+00  0.0000E+00  0.0000E+00
      6.920  0.2917E-01  0.4616E-02  0.2125E-02  0.2363E-01  0.0000E+00  0.0000E+00  0.0000E+00  0.0000E+00  0.0000E+00
      7.048  0.3825E-01  0.1423E-01  0.2951E-02  0.2223E-01  0.0000E+00  0.0000E+00  0.0000E+00  0.0000E+00  0.0000E+00
      7.176  0.4276E-01  0.1410E-01  0.3601E-02  0.2167E-01  0.0000E+00  0.0000E+00  0.0000E+00  0.0000E+00  0.0000E+00
      7.303  0.1071E+00  0.1468E-01  0.7328E-02  0.2280E-01  0.0000E+00  0.0000E+00  0.0000E+00  0.0000E+00  0.0000E+00
      7.431  0.1415E+00  0.1570E-01  0.8721E-02  0.2589E-01  0.0000E+00  0.0000E+00  0.0000E+00  0.0000E+00  0.0000E+00
      7.559  0.9260E-01  0.1395E-01  0.8744E-02  0.2455E-01  0.0000E+00  0.0000E+00  0.0000E+00  0.0000E+00  0.0000E+00
      7.686  0.7587E-01  0.1522E-01  0.9312E-02  0.2493E-01  0.0000E+00  0.0000E+00  0.0000E+00  0.0000E+00  0.0000E+00
      7.814  0.6292E-01  0.1360E-01  0.8577E-02  0.2600E-01  0.0000E+00  0.0000E+00  0.0000E+00  0.0000E+00  0.0000E+00
      7.941  0.5714E-01  0.1464E-01  0.1010E-01  0.2863E-01  0.0000E+00  0.0000E+00  0.0000E+00  0.0000E+00  0.0000E+00
      8.069  0.5549E-01  0.1660E-01  0.1139E-01  0.3198E-01  0.0000E+00  0.0000E+00  0.0000E+00  0.0000E+00  0.0000E+00
      8.197  0.4985E-01  0.2135E-01  0.1612E-01  0.4173E-01  0.0000E+00  0.0000E+00  0.0000E+00  0.0000E+00  0.0000E+00
      8.324  0.5058E-01  0.8197E-01  0.8534E-01  0.1155E+00  0.0000E+00  0.0000E+00  0.0000E+00  0.0000E+00  0.0000E+00
      8.452  0.4382E-01  0.1472E+00  0.1528E+00  0.1446E+00  0.0000E+00  0.0000E+00  0.0000E+00  0.0000E+00  0.0000E+00
      8.579  0.4103E-01  0.1082E+00  0.9066E-01  0.6764E-01  0.0000E+00  0.0000E+00  0.0000E+00  0.0000E+00  0.0000E+00
      8.707  0.6916E-01  0.1095E+00  0.6374E-01  0.4995E-01  0.0000E+00  0.0000E+00  0.0000E+00  0.0000E+00  0.0000E+00
      8.835  0.7737E-01  0.1057E+00  0.5135E-01  0.4057E-01  0.0000E+00  0.0000E+00  0.0000E+00  0.0000E+00  0.0000E+00
      8.962  0.8229E-01  0.6700E-01  0.6148E-01  0.3771E-01  0.0000E+00  0.0000E+00  0.0000E+00  0.0000E+00  0.0000E+00
      9.090  0.2349E+00  0.5907E-01  0.6615E-01  0.6095E-01  0.0000E+00  0.0000E+00  0.0000E+00  0.0000E+00  0.0000E+00
      9.217  0.1501E+00  0.1085E+00  0.1123E+00  0.9733E-01  0.0000E+00  0.0000E+00  0.0000E+00  0.0000E+00  0.0000E+00
      9.345  0.9734E-01  0.9756E-01  0.1005E+00  0.8750E-01  0.0000E+00  0.0000E+00  0.0000E+00  0.0000E+00  0.0000E+00
      9.473  0.8571E-01  0.3245E-01  0.4598E-01  0.3713E-01  0.0000E+00  0.0000E+00  0.0000E+00  0.0000E+00  0.0000E+00
      9.600  0.6449E-01  0.3631E-01  0.3909E-01  0.2088E-01  0.0000E+00  0.0000E+00  0.0000E+00  0.0000E+00  0.0000E+00
      9.728  0.6635E-01  0.2078E-01  0.3246E-01  0.1823E-01  0.0000E+00  0.0000E+00  0.0000E+00  0.0000E+00  0.0000E+00
      9.855  0.4875E-01  0.1802E-01  0.1924E-01  0.2331E-01  0.0000E+00  0.0000E+00  0.0000E+00  0.0000E+00  0.0000E+00
      9.983  0.8388E-01  0.3094E-01  0.4236E-01  0.3609E-01  0.0000E+00  0.0000E+00  0.0000E+00  0.0000E+00  0.0000E+00
     10.111  0.8213E-01  0.3325E-01  0.3208E-01  0.3441E-01  0.0000E+00  0.0000E+00  0.0000E+00  0.0000E+00  0.0000E+00
     10.238  0.4646E-01  0.1361E-01  0.1132E-01  0.2328E-01  0.0000E+00  0.0000E+00  0.0000E+00  0.0000E+00  0.0000E+00
     10.366  0.2645E-01  0.3091E-01  0.3056E-01  0.2048E-01  0.0000E+00  0.0000E+00  0.0000E+00  0.0000E+00  0.0000E+00
     10.493  0.4968E-01  0.4060E-01  0.4494E-01  0.2068E-01  0.0000E+00  0.0000E+00  0.0000E+00  0.0000E+00  0.0000E+00
     10.621  0.3221E-01  0.1610E-01  0.1983E-01  0.1537E-01  0.0000E+00  0.0000E+00  0.0000E+00  0.0000E+00  0.0000E+00
     10.749  0.1780E-01  0.2508E-01  0.3408E-01  0.2106E-01  0.0000E+00  0.0000E+00  0.0000E+00  0.0000E+00  0.0000E+00
     10.876  0.2384E-01  0.3054E-01  0.4873E-01  0.1334E-01  0.0000E+00  0.0000E+00  0.0000E+00  0.0000E+00  0.0000E+00
     11.004  0.3848E-01  0.2482E-01  0.3761E-01  0.1824E-01  0.0000E+00  0.0000E+00  0.0000E+00  0.0000E+00  0.0000E+00
     11.132  0.2212E-01  0.1607E-01  0.1575E-01  0.1339E-01  0.0000E+00  0.0000E+00  0.0000E+00  0.0000E+00  0.0000E+00
     11.259  0.2337E-01  0.1839E-01  0.2678E-01  0.1376E-01  0.0000E+00  0.0000E+00  0.0000E+00  0.0000E+00  0.0000E+00
     11.387  0.4418E-01  0.3416E-01  0.5203E-01  0.3093E-01  0.0000E+00  0.0000E+00  0.0000E+00  0.0000E+00  0.0000E+00
     11.514  0.5659E-01  0.2380E-01  0.4250E-01  0.4051E-01  0.0000E+00  0.0000E+00  0.0000E+00  0.0000E+00  0.0000E+00
     11.642  0.3017E-01  0.1886E-01  0.1821E-01  0.2997E-01  0.0000E+00  0.0000E+00  0.0000E+00  0.0000E+00  0.0000E+00
     11.770  0.2043E-01  0.3771E-01  0.3324E-01  0.2178E-01  0.0000E+00  0.0000E+00  0.0000E+00  0.0000E+00  0.0000E+00
     11.897  0.3036E-01  0.3553E-01  0.4244E-01  0.3089E-01  0.0000E+00  0.0000E+00  0.0000E+00  0.0000E+00  0.0000E+00
     12.025  0.3394E-01  0.2275E-01  0.2630E-01  0.2777E-01  0.0000E+00  0.0000E+00  0.0000E+00  0.0000E+00  0.0000E+00
     12.152  0.1577E-01  0.1550E-01  0.1801E-01  0.1430E-01  0.0000E+00  0.0000E+00  0.0000E+00  0.0000E+00  0.0000E+00