    2    2    1    1
  0.2042676E+02  0.3865878E-09  0.3865878E-09  0.3865878E-09  0.5000000E-15
  1.000000000000000E-004
  CAR 
 diamond Si                              
      8     80     18
 
  0.5000000E+00  0.5000000E+00  0.5000000E+00  0.1250000E-01
    1       -3.711618   1.000000
    2       -1.079433   1.000000
    3        4.656764   1.000000
    4        4.656764   1.000000
    5        7.278389   0.000000
    6        9.102180   0.000000
    7        9.102180   0.000000
    8       13.419236   0.000000
    9       16.318115   0.000000
   10       16.318115   0.000000
   11       17.007555   0.000000
   12       17.007555   0.000000
   13       17.025803   0.000000
   14       18.581454   0.000000
   15       25.021796   0.000000
   16       25.547471   0.000000
   17       27.226937   0.000000
   18       27.228540   0.000000
 
  0.4736842E+00  0.4736842E+00  0.4736842E+00  0.1250000E-01
    1       -3.750306   1.000000
    2       -1.023799   1.000000
    3        4.661701   1.000000
    4        4.661701   1.000000
    5        7.284080   0.000000
    6        9.107935   0.000000
    7        9.107935   0.000000
    8       13.428080   0.000000
    9       16.025915   0.000000
   10       16.025915   0.000000
   11       16.873432   0.000000
   12       17.320596   0.000000
   13       17.320596   0.000000
   14       18.726056   0.000000
   15       24.444404   0.000000
   16       26.154059   0.000000
   17       26.641342   0.000000
   18       26.641343   0.000000
 
  0.4473684E+00  0.4473684E+00  0.4473684E+00  0.1250000E-01
    1       -3.857356   1.000000
    2       -0.865893   1.000000
    3        4.676632   1.000000
    4        4.676632   1.000000
    5        7.301046   0.000000
    6        9.125695   0.000000
    7        9.125695   0.000000
    8       13.453752   0.000000
    9       15.560325   0.000000
   10       15.560325   0.000000
   11       16.523123   0.000000
   12       17.851030   0.000000
   13       17.851030   0.000000
   14       19.046286   0.000000
   15       23.709172   0.000000
   16       25.961202   0.000000
   17       25.961202   0.000000
   18       26.981109   0.000000
 
  0.4210526E+00  0.4210526E+00  0.4210526E+00  0.1250000E-01
    1       -4.012539   1.000000
    2       -0.626163   1.000000
    3        4.701243   1.000000
    4        4.701243   1.000000
    5        7.329364   0.000000
    6        9.152077   0.000000
    7        9.152077   0.000000
    8       13.493326   0.000000
    9       15.086344   0.000000
   10       15.086344   0.000000
   11       16.099812   0.000000
   12       18.422358   0.000000
   13       18.422358   0.000000
   14       19.391433   0.000000
   15       23.041566   0.000000
   16       25.274099   0.000000
   17       25.274099   0.000000
   18       27.827008   0.000000
 
  0.3947368E+00  0.3947368E+00  0.3947368E+00  0.1250000E-01
    1       -4.195467   1.000000
    2       -0.325050   1.000000
    3        4.735726   1.000000
    4        4.735726   1.000000
    5        7.368823   0.000000
    6        9.185776   0.000000
    7        9.185776   0.000000
    8       13.540878   0.000000
    9       14.639130   0.000000
   10       14.639130   0.000000
   11       15.660206   0.000000
   12       19.008583   0.000000
   13       19.008583   0.000000
   14       19.642522   0.000000
   15       22.521424   0.000000
   16       24.607230   0.000000
   17       24.607230   0.000000
   18       28.605939   0.000000
 
  0.3684211E+00  0.3684211E+00  0.3684211E+00  0.1250000E-01
    1       -4.391081   1.000000
    2        0.021814   1.000000
    3        4.779716   1.000000
    4        4.779716   1.000000
    5        7.418757   0.000000
    6        9.222963   0.000000
    7        9.222963   0.000000
    8       13.581456   0.000000
    9       14.221816   0.000000
   10       14.221816   0.000000
   11       15.235128   0.000000
   12       19.587737   0.000000
   13       19.587737   0.000000
   14       19.658998   0.000000
   15       22.267744   0.000000
   16       23.974606   0.000000
   17       23.974606   0.000000
   18       28.337251   0.000000
 
  0.3421053E+00  0.3421053E+00  0.3421053E+00  0.1250000E-01
    1       -4.589055   1.000000
    2        0.403919   1.000000
    3        4.833542   1.000000
    4        4.833542   1.000000
    5        7.479400   0.000000
    6        9.258716   0.000000
    7        9.258716   0.000000
    8       13.579622   0.000000
    9       13.842659   0.000000
   10       13.842659   0.000000
   11       14.867329   0.000000
   12       19.372845   0.000000
   13       20.132561   0.000000
   14       20.132561   0.000000
   15       22.352528   0.000000
   16       23.410917   0.000000
   17       23.410917   0.000000
   18       27.660204   0.000000
 
  0.3157895E+00  0.3157895E+00  0.3157895E+00  0.1250000E-01
    1       -4.782839   1.000000
    2        0.814031   1.000000
    3        4.896772   1.000000
    4        4.896772   1.000000
    5        7.550411   0.000000
    6        9.286551   0.000000
    7        9.286551   0.000000
    8       13.467155   0.000000
    9       13.512408   0.000000
   10       13.512408   0.000000
   11       14.627335   0.000000
   12       18.887646   0.000000
   13       20.559402   0.000000
   14       20.559402   0.000000
   15       22.663322   0.000000
   16       23.002754   0.000000
   17       23.002754   0.000000
   18       26.989080   0.000000
 
  0.2894737E+00  0.2894737E+00  0.2894737E+00  0.1250000E-01
    1       -4.968131   1.000000
    2        1.247202   1.000000
    3        4.969108   1.000000
    4        4.969109   1.000000
    5        7.631691   0.000000
    6        9.298678   0.000000
    7        9.298678   0.000000
    8       13.197138   0.000000
    9       13.237160   0.000000
   10       13.237160   0.000000
   11       14.559088   0.000000
   12       18.325580   0.000000
   13       20.702955   0.000000
   14       20.702955   0.000000
   15       22.916147   0.000000
   16       22.916147   0.000000
   17       23.071465   0.000000
   18       26.359894   0.000000
 
  0.2631579E+00  0.2631579E+00  0.2631579E+00  0.1250000E-01
    1       -5.142138   1.000000
    2        1.699264   1.000000
    3        5.049947   1.000000
    4        5.049947   1.000000
    5        7.720527   0.000000
    6        9.286675   0.000000
    7        9.286675   0.000000
    8       12.815750   0.000000
    9       13.024561   0.000000
   10       13.024561   0.000000
   11       14.608062   0.000000
   12       17.754580   0.000000
   13       20.485021   0.000000
   14       20.485021   0.000000
   15       23.224239   0.000000
   16       23.224239   0.000000
   17       23.464042   0.000000
   18       25.817848   0.000000
 
  0.2368421E+00  0.2368421E+00  0.2368421E+00  0.1250000E-01
    1       -5.302857   1.000000
    2        2.167066   1.000000
    3        5.138553   1.000000
    4        5.138553   1.000000
    5        7.816507   0.000000
    6        9.244092   0.000000
    7        9.244092   0.000000
    8       12.382305   0.000000
    9       12.881278   0.000000
   10       12.881278   0.000000
   11       14.702681   0.000000
   12       17.216803   0.000000
   13       20.067722   0.000000
   14       20.067722   0.000000
   15       23.705412   0.000000
   16       23.768027   0.000000
   17       23.768027   0.000000
   18       25.481257   0.000000
 
  0.2105263E+00  0.2105263E+00  0.2105263E+00  0.1250000E-01
    1       -5.448981   1.000000
    2        2.647404   1.000000
    3        5.233491   1.000000
    4        5.233491   1.000000
    5        7.917732   0.000000
    6        9.167853   0.000000
    7        9.167853   0.000000
    8       11.925100   0.000000
    9       12.808558   0.000000
   10       12.808558   0.000000
   11       14.788179   0.000000
   12       16.753287   0.000000
   13       19.582609   0.000000
   14       19.582609   0.000000
   15       23.609810   0.000000
   16       24.409738   0.000000
   17       24.409738   0.000000
   18       25.524893   0.000000
 
  0.1842105E+00  0.1842105E+00  0.1842105E+00  0.1250000E-01
    1       -5.579445   1.000000
    2        3.136724   1.000000
    3        5.333704   1.000000
    4        5.333704   1.000000
    5        8.021776   0.000000
    6        9.061286   0.000000
    7        9.061286   0.000000
    8       11.456427   0.000000
    9       12.804918   0.000000
   10       12.804918   0.000000
   11       14.803468   0.000000
   12       16.422338   0.000000
   13       19.089397   0.000000
   14       19.089397   0.000000
   15       23.243676   0.000000
   16       25.100143   0.000000
   17       25.100143   0.000000
   18       25.877467   0.000000
 
  0.1578947E+00  0.1578947E+00  0.1578947E+00  0.1250000E-01
    1       -5.693586   1.000000
    2        3.630625   1.000000
    3        5.436649   1.000000
    4        5.436649   1.000000
    5        8.125039   0.000000
    6        8.931867   0.000000
    7        8.931867   0.000000
    8       10.983456   0.000000
    9       12.860014   0.000000
   10       12.860014   0.000000
   11       14.690982   0.000000
   12       16.281144   0.000000
   13       18.610477   0.000000
   14       18.610477   0.000000
   15       22.790171   0.000000
   16       25.809682   0.000000
   17       25.809682   0.000000
   18       26.353405   0.000000
 
  0.1315789E+00  0.1315789E+00  0.1315789E+00  0.1250000E-01
    1       -5.790924   1.000000
    2        4.122610   1.000000
    3        5.539059   1.000000
    4        5.539059   1.000000
    5        8.222180   0.000000
    6        8.790534   0.000000
    7        8.790534   0.000000
    8       10.512886   0.000000
    9       12.960351   0.000000
   10       12.960351   0.000000
   11       14.466916   0.000000
   12       16.310180   0.000000
   13       18.160502   0.000000
   14       18.160502   0.000000
   15       22.331637   0.000000
   16       26.517037   0.000000
   17       26.517037   0.000000
   18       26.858516   0.000000
 
  0.1052632E+00  0.1052632E+00  0.1052632E+00  0.1250000E-01
    1       -5.870951   1.000000
    2        4.603773   1.000000
    3        5.636775   1.000000
    4        5.636775   1.000000
    5        8.306584   0.000000
    6        8.649832   0.000000
    7        8.649832   0.000000
    8       10.057585   0.000000
    9       13.089832   0.000000
   10       13.089832   0.000000
   11       14.206177   0.000000
   12       16.437435   0.000000
   13       17.752935   0.000000
   14       17.752935   0.000000
   15       21.908306   0.000000
   16       27.204310   0.000000
   17       27.204311   0.000000
   18       27.372319   0.000000
 
  0.7894737E-01  0.7894737E-01  0.7894737E-01  0.1250000E-01
    1       -5.933502   1.000000
    2        5.057632   1.000000
    3        5.723570   1.000000
    4        5.723570   1.000000
    5        8.366059   0.000000
    6        8.521841   0.000000
    7        8.521841   0.000000
    8        9.638186   0.000000
    9       13.227011   0.000000
   10       13.227011   0.000000
   11       13.966552   0.000000
   12       16.594839   0.000000
   13       17.401644   0.000000
   14       17.401644   0.000000
   15       21.540805   0.000000
   16       27.830368   0.000000
   17       27.830369   0.000000
   18       27.854929   0.000000
 
  0.5263158E-01  0.5263158E-01  0.5263158E-01  0.1250000E-01
    1       -5.978311   1.000000
    2        5.455326   1.000000
    3        5.793567   0.999998
    4        5.793567   0.999998
    5        8.385405   0.000000
    6        8.418909   0.000000
    7        8.418909   0.000000
    8        9.294285   0.000000
    9       13.352843   0.000000
   10       13.352843   0.000000
   11       13.779268   0.000000
   12       16.742103   0.000000
   13       17.125139   0.000000
   14       17.125139   0.000000
   15       21.252472   0.000000
   16       28.285595   0.000000
   17       28.332500   0.000000
   18       28.332505   0.000000
 
  0.2631579E-01  0.2631579E-01  0.2631579E-01  0.1250000E-01
    1       -6.005268   1.000000
    2        5.745023   1.000000
    3        5.839024   0.999964
    4        5.839024   0.999964
    5        8.351580   0.000000
    6        8.351580   0.000000
    7        8.355731   0.000000
    8        9.079410   0.000000
    9       13.440143   0.000000
   10       13.440143   0.000000
   11       13.660989   0.000000
   12       16.845612   0.000000
   13       16.944863   0.000000
   14       16.944863   0.000000
   15       21.065954   0.000000
   16       28.598545   0.000000
   17       28.623701   0.000000
   18       28.623704   0.000000
 
  0.2775558E-16  0.2775558E-16  0.2775558E-16  0.1250000E-01
    1       -6.014242   1.000000
    2        5.854979   0.999911
    3        5.855017   0.999910
    4        5.855017   0.999910
    5        8.328337   0.000000
    6        8.328373   0.000000
    7        8.328373   0.000000
    8        9.012484   0.000000
    9       13.473105   0.000000
   10       13.473105   0.000000
   11       13.620673   0.000000
   12       16.882634   0.000000
   13       16.882669   0.000000
   14       16.882669   0.000000
   15       21.001081   0.000000
   16       28.713548   0.000000
   17       28.713771   0.000000
   18       28.713773   0.000000
 
  0.0000000E+00  0.0000000E+00  0.0000000E+00  0.1250000E-01
    1       -6.014242   1.000000
    2        5.854979   0.999911
    3        5.855017   0.999910
    4        5.855017   0.999910
    5        8.328337   0.000000
    6        8.328373   0.000000
    7        8.328373   0.000000
    8        9.012484   0.000000
    9       13.473105   0.000000
   10       13.473105   0.000000
   11       13.620673   0.000000
   12       16.882634   0.000000
   13       16.882669   0.000000
   14       16.882669   0.000000
   15       21.001081   0.000000
   16       28.713548   0.000000
   17       28.713771   0.000000
   18       28.713773   0.000000
 
  0.0000000E+00  0.2631579E-01  0.2631579E-01  0.1250000E-01
    1       -6.002255   1.000000
    2        5.770226   1.000000
    3        5.802458   0.999996
    4        5.802484   0.999996
    5        8.298537   0.000000
    6        8.396507   0.000000
    7        8.396531   0.000000
    8        9.095719   0.000000
    9       13.377383   0.000000
   10       13.486464   0.000000
   11       13.674434   0.000000
   12       16.904459   0.000000
   13       16.904482   0.000000
   14       16.954708   0.000000
   15       21.088193   0.000000
   16       28.523587   0.000000
   17       28.523727   0.000000
   18       28.728991   0.000000
 
  0.0000000E+00  0.5263158E-01  0.5263158E-01  0.1250000E-01
    1       -5.966301   1.000000
    2        5.539469   1.000000
    3        5.659910   1.000000
    4        5.659935   1.000000
    5        8.213191   0.000000
    6        8.584811   0.000000
    7        8.584835   0.000000
    8        9.317560   0.000000
    9       13.113348   0.000000
   10       13.530927   0.000000
   11       13.831612   0.000000
   12       16.969147   0.000000
   13       16.969167   0.000000
   14       17.142377   0.000000
   15       21.346085   0.000000
   16       28.051888   0.000000
   17       28.051995   0.000000
   18       28.787736   0.000000
 
  0.0000000E+00  0.7894737E-01  0.7894737E-01  0.1250000E-01
    1       -5.906484   1.000000
    2        5.209484   1.000000
    3        5.458103   1.000000
    4        5.458127   1.000000
    5        8.081534   0.000000
    6        8.860082   0.000000
    7        8.860107   0.000000
    8        9.615864   0.000000
    9       12.763617   0.000000
   10       13.597128   0.000000
   11       14.081373   0.000000
   12       17.073821   0.000000
   13       17.073842   0.000000
   14       17.388663   0.000000
   15       21.762002   0.000000
   16       27.426582   0.000000
   17       27.426679   0.000000
   18       28.658798   0.000000
 
  0.0000000E+00  0.1052632E+00  0.1052632E+00  0.1250000E-01
    1       -5.822887   1.000000
    2        4.820311   1.000000
    3        5.225818   1.000000
    4        5.225842   1.000000
    5        7.917250   0.000000
    6        9.194696   0.000000
    7        9.194722   0.000000
    8        9.914413   0.000000
    9       12.421682   0.000000
   10       13.689833   0.000000
   11       14.410105   0.000000
   12       17.219874   0.000000
   13       17.219896   0.000000
   14       17.657733   0.000000
   15       22.315103   0.000000
   16       26.741703   0.000000
   17       26.741790   0.000000
   18       27.981214   0.000000
 
  0.0000000E+00  0.1315789E+00  0.1315789E+00  0.1250000E-01
    1       -5.715622   1.000000
    2        4.396771   1.000000
    3        4.981845   1.000000
    4        4.981868   1.000000
    5        7.733197   0.000000
    6        9.569362   0.000000
    7        9.569389   0.000000
    8       10.107171   0.000000
    9       12.205222   0.000000
   10       13.809022   0.000000
   11       14.803907   0.000000
   12       17.406490   0.000000
   13       17.406514   0.000000
   14       17.935804   0.000000
   15       22.978405   0.000000
   16       26.034999   0.000000
   17       26.035076   0.000000
   18       27.262879   0.000000
 
  0.0000000E+00  0.1578947E+00  0.1578947E+00  0.1250000E-01
    1       -5.584761   1.000000
    2        3.953395   1.000000
    3        4.738074   1.000000
    4        4.738096   1.000000
    5        7.540857   0.000000
    6        9.973163   0.000000
    7        9.973187   0.000000
    8       10.077270   0.000000
    9       12.239642   0.000000
   10       13.957697   0.000000
   11       15.250629   0.000000
   12       17.635073   0.000000
   13       17.635098   0.000000
   14       18.225607   0.000000
   15       23.726038   0.000000
   16       25.332240   0.000000
   17       25.332309   0.000000
   18       26.533667   0.000000
 
  0.0000000E+00  0.1842105E+00  0.1842105E+00  0.1250000E-01
    1       -5.430708   1.000000
    2        3.497730   1.000000
    3        4.500844   1.000000
    4        4.500865   1.000000
    5        7.348023   0.000000
    6        9.829679   0.000000
    7       10.396042   0.000000
    8       10.396066   0.000000
    9       12.523601   0.000000
   10       14.129759   0.000000
   11       15.738365   0.000000
   12       17.896900   0.000000
   13       17.896927   0.000000
   14       18.527163   0.000000
   15       24.524145   0.000000
   16       24.634574   0.000000
   17       24.634635   0.000000
   18       25.795928   0.000000
 
  0.0000000E+00  0.2105263E+00  0.2105263E+00  0.1250000E-01
    1       -5.253637   1.000000
    2        3.034984   1.000000
    3        4.275080   1.000000
    4        4.275101   1.000000
    5        7.161977   0.000000
    6        9.471719   0.000000
    7       10.834129   0.000000
    8       10.834154   0.000000
    9       12.953384   0.000000
   10       14.328201   0.000000
   11       16.257341   0.000000
   12       18.189291   0.000000
   13       18.189321   0.000000
   14       18.849702   0.000000
   15       23.960549   0.000000
   16       23.960602   0.000000
   17       25.064364   0.000000
   18       25.345346   0.000000
 
  0.0000000E+00  0.2368421E+00  0.2368421E+00  0.1250000E-01
    1       -5.053768   1.000000
    2        2.568345   1.000000
    3        4.063914   1.000000
    4        4.063935   1.000000
    5        6.987927   0.000000
    6        9.079437   0.000000
    7       11.284721   0.000000
    8       11.284746   0.000000
    9       13.454779   0.000000
   10       14.552976   0.000000
   11       16.797391   0.000000
   12       18.505201   0.000000
   13       18.505232   0.000000
   14       19.198988   0.000000
   15       23.327489   0.000000
   16       23.327532   0.000000
   17       24.347206   0.000000
   18       26.156007   0.000000
 
  0.0000000E+00  0.2631579E+00  0.2631579E+00  0.1250000E-01
    1       -4.831594   1.000000
    2        2.099827   1.000000
    3        3.869073   1.000000
    4        3.869094   1.000000
    5        6.829770   0.000000
    6        8.688588   0.000000
    7       11.744035   0.000000
    8       11.744061   0.000000
    9       13.990535   0.000000
   10       14.804018   0.000000
   11       17.346341   0.000000
   12       18.816138   0.000000
   13       18.816175   0.000000
   14       19.579792   0.000000
   15       22.752648   0.000000
   16       22.752681   0.000000
   17       23.641880   0.000000
   18       25.687761   0.000000
 
  0.0000000E+00  0.2894737E+00  0.2894737E+00  0.1250000E-01
    1       -4.587499   1.000000
    2        1.630839   1.000000
    3        3.692151   1.000000
    4        3.692172   1.000000
    5        6.690544   0.000000
    6        8.313632   0.000000
    7       12.210350   0.000000
    8       12.210376   0.000000
    9       14.542244   0.000000
   10       15.081247   0.000000
   11       17.888848   0.000000
   12       19.079030   0.000000
   13       19.079075   0.000000
   14       19.992391   0.000000
   15       22.283209   0.000000
   16       22.283232   0.000000
   17       22.954205   0.000000
   18       25.251405   0.000000
 
  0.0000000E+00  0.3157895E+00  0.3157895E+00  0.1250000E-01
    1       -4.321882   1.000000
    2        1.163999   1.000000
    3        3.534293   1.000000
    4        3.534313   1.000000
    5        6.573047   0.000000
    6        7.968703   0.000000
    7       12.685248   0.000000
    8       12.685275   0.000000
    9       15.102032   0.000000
   10       15.385295   0.000000
   11       18.403061   0.000000
   12       19.214127   0.000000
   13       19.214181   0.000000
   14       20.452505   0.000000
   15       22.007760   0.000000
   16       22.007773   0.000000
   17       22.285969   0.000000
   18       24.875158   0.000000
 
  0.0000000E+00  0.3421053E+00  0.3421053E+00  0.1250000E-01
    1       -4.035399   1.000000
    2        0.700432   1.000000
    3        3.396236   1.000000
    4        3.396256   1.000000
    5        6.478890   0.000000
    6        7.654369   0.000000
    7       13.164899   0.000000
    8       13.164926   0.000000
    9       15.659043   0.000000
   10       15.714667   0.000000
   11       18.856727   0.000000
   12       19.130671   0.000000
   13       19.130731   0.000000
   14       20.945980   0.000000
   15       21.638503   0.000000
   16       22.012141   0.000000
   17       22.012147   0.000000
   18       24.580076   0.000000
 
  0.0000000E+00  0.3684211E+00  0.3684211E+00  0.1250000E-01
    1       -3.728674   1.000000
    2        0.241801   1.000000
    3        3.278584   1.000000
    4        3.278604   1.000000
    5        6.409937   0.000021
    6        7.373701   0.000000
    7       13.649587   0.000000
    8       13.649614   0.000000
    9       16.069965   0.000000
   10       16.208874   0.000000
   11       18.834064   0.000000
   12       18.834123   0.000000
   13       19.206775   0.000000
   14       21.012829   0.000000
   15       21.479645   0.000000
   16       22.290796   0.000000
   17       22.290803   0.000000
   18       24.407962   0.000000
 
  0.0000000E+00  0.3947368E+00  0.3947368E+00  0.1250000E-01
    1       -3.402381   1.000000
    2       -0.210118   1.000000
    3        3.181787   1.000000
    4        3.181807   1.000000
    5        6.367477   0.000232
    6        7.128546   0.000000
    7       14.137009   0.000000
    8       14.137036   0.000000
    9       16.451070   0.000000
   10       16.748275   0.000000
   11       18.412487   0.000000
   12       18.412534   0.000000
   13       19.406990   0.000000
   14       20.410947   0.000000
   15       22.051874   0.000000
   16       22.757973   0.000000
   17       22.757980   0.000000
   18       24.395923   0.000000
 
  0.0000000E+00  0.4210526E+00  0.4210526E+00  0.1250000E-01
    1       -3.057315   1.000000
    2       -0.653953   1.000000
    3        3.106214   1.000000
    4        3.106233   1.000000
    5        6.353200   0.000486
    6        6.917575   0.000000
    7       14.628196   0.000000
    8       14.628225   0.000000
    9       16.859596   0.000000
   10       17.269228   0.000000
   11       17.934737   0.000000
   12       17.934782   0.000000
   13       19.431083   0.000000
   14       19.831498   0.000000
   15       22.659959   0.000000
   16       23.343052   0.000000
   17       23.343061   0.000000
   18       24.542401   0.000000
 
  0.0000000E+00  0.4473684E+00  0.4473684E+00  0.1250000E-01
    1       -2.694532   1.000000
    2       -1.087881   1.000000
    3        3.052093   1.000000
    4        3.052113   1.000000
    5        6.368084   0.000225
    6        6.741203   0.000000
    7       15.109690   0.000000
    8       15.109719   0.000000
    9       17.295739   0.000000
   10       17.446029   0.000000
   11       17.446072   0.000000
   12       17.766715   0.000000
   13       19.275295   0.000000
   14       19.289401   0.000000
   15       23.291974   0.000000
   16       24.002696   0.000000
   17       24.002707   0.000000
   18       24.773532   0.000000
 
  0.0000000E+00  0.4736842E+00  0.4736842E+00  0.1250000E-01
    1       -2.314992   1.000000
    2       -1.510328   1.000000
    3        3.019536   1.000000
    4        3.019556   1.000000
    5        6.413301   0.000017
    6        6.598905   0.000000
    7       15.545338   0.000000
    8       15.545367   0.000000
    9       16.999583   0.000000
   10       16.999626   0.000000
   11       17.753234   0.000000
   12       18.233140   0.000000
   13       18.743289   0.000000
   14       19.018440   0.000000
   15       23.926745   0.000000
   16       24.708632   0.000000
   17       24.708646   0.000000
   18       24.841201   0.000000
 
  0.0000000E+00  0.5000000E+00  0.5000000E+00  0.1250000E-01
    1       -1.919831   1.000000
    2       -1.919830   1.000000
    3        3.008674   1.000000
    4        3.008694   1.000000
    5        6.489883   0.000000
    6        6.489935   0.000000
    7       15.772474   0.000000
    8       15.772500   0.000000
    9       16.768128   0.000000
   10       16.768172   0.000000
   11       18.235826   0.000000
   12       18.235845   0.000000
   13       18.656685   0.000000
   14       18.656718   0.000000
   15       24.502309   0.000000
   16       24.502491   0.000000
   17       25.269734   0.000000
   18       25.269751   0.000000
 
  0.0000000E+00  0.5000000E+00  0.5000000E+00  0.1250000E-01
    1       -1.919831   1.000000
    2       -1.919830   1.000000
    3        3.008674   1.000000
    4        3.008694   1.000000
    5        6.489883   0.000000
    6        6.489935   0.000000
    7       15.772474   0.000000
    8       15.772500   0.000000
    9       16.768128   0.000000
   10       16.768172   0.000000
   11       18.235826   0.000000
   12       18.235845   0.000000
   13       18.656685   0.000000
   14       18.656718   0.000000
   15       24.502309   0.000000
   16       24.502491   0.000000
   17       25.269736   0.000000
   18       25.269753   0.000000
 
  0.1973684E-01  0.5131579E+00  0.4934211E+00  0.1250000E-01
    1       -2.017541   1.000000
    2       -1.816720   1.000000
    3        2.988061   1.000000
    4        2.989069   1.000000
    5        6.505878   0.000000
    6        6.551614   0.000000
    7       15.675808   0.000000
    8       15.712534   0.000000
    9       16.674230   0.000000
   10       16.713369   0.000000
   11       18.178869   0.000000
   12       18.426648   0.000000
   13       18.647956   0.000000
   14       18.848472   0.000000
   15       24.246920   0.000000
   16       24.519854   0.000000
   17       25.164167   0.000000
   18       25.267427   0.000000
 
  0.3947368E-01  0.5263158E+00  0.4868421E+00  0.1250000E-01
    1       -2.108645   1.000000
    2       -1.709777   1.000000
    3        2.927522   1.000000
    4        2.935255   1.000000
    5        6.598040   0.000000
    6        6.686350   0.000000
    7       15.344925   0.000000
    8       15.572121   0.000000
    9       16.443977   0.000000
   10       16.686283   0.000000
   11       18.141109   0.000000
   12       18.623860   0.000000
   13       18.837323   0.000000
   14       19.261861   0.000000
   15       23.823085   0.000000
   16       24.413828   0.000000
   17       24.924998   0.000000
   18       25.334334   0.000000
 
  0.5921053E-01  0.5394737E+00  0.4802632E+00  0.1250000E-01
    1       -2.192204   1.000000
    2       -1.601006   1.000000
    3        2.833119   1.000000
    4        2.857743   1.000000
    5        6.759834   0.000000
    6        6.885546   0.000000
    7       14.841966   0.000000
    8       15.370733   0.000000
    9       16.176565   0.000000
   10       16.739150   0.000000
   11       18.073436   0.000000
   12       18.778984   0.000000
   13       19.155573   0.000000
   14       19.824955   0.000000
   15       23.354887   0.000000
   16       24.242233   0.000000
   17       24.690070   0.000000
   18       25.427114   0.000000
 
  0.7894737E-01  0.5526316E+00  0.4736842E+00  0.1250000E-01
    1       -2.267599   1.000000
    2       -1.492865   1.000000
    3        2.713853   1.000000
    4        2.768645   1.000000
    5        6.980256   0.000000
    6        7.138346   0.000000
    7       14.263291   0.000000
    8       15.106710   0.000000
    9       15.929905   0.000000
   10       16.826251   0.000000
   11       17.999749   0.000000
   12       18.920753   0.000000
   13       19.525825   0.000000
   14       20.446903   0.000000
   15       22.892252   0.000000
   16       24.007793   0.000000
   17       24.521726   0.000000
   18       25.513783   0.000000
 
  0.9868421E-01  0.5657895E+00  0.4671053E+00  0.1250000E-01
    1       -2.334257   1.000000
    2       -1.388193   1.000000
    3        2.579148   1.000000
    4        2.679675   1.000000
    5        7.250104   0.000000