   4   4   1   0
  0.1112999E+02  0.3544200E-09  0.3544200E-09  0.3544200E-09  0.5000000E-15
  1.000000000000000E-004
  CAR 
 Co_fcc                                  
     25.86770374     -0.03158377  301     11.12565589      1.00000000
     -0.032  0.0000E+00  0.0000E+00
      0.055  0.0000E+00  0.0000E+00
      0.141  0.0000E+00  0.0000E+00
      0.227  0.0000E+00  0.0000E+00
      0.314  0.0000E+00  0.0000E+00
      0.400  0.0000E+00  0.0000E+00
      0.486  0.0000E+00  0.0000E+00
      0.573  0.0000E+00  0.0000E+00
      0.659  0.0000E+00  0.0000E+00
      0.745 -0.1424E-27 -0.1229E-28
      0.832 -0.6282E-17 -0.5423E-18
      0.918 -0.6506E-09 -0.5616E-10
      1.004 -0.1559E-03 -0.1346E-04
      1.091 -0.4978E-01 -0.4311E-02
      1.177  0.1393E+01  0.1160E+00
      1.263  0.2773E+01  0.3554E+00
      1.350  0.1479E+01  0.4831E+00
      1.436  0.1157E+01  0.5830E+00
      1.522  0.9848E+00  0.6680E+00
      1.609  0.8738E+00  0.7435E+00
      1.695  0.7953E+00  0.8121E+00
      1.781  0.7351E+00  0.8756E+00
      1.868  0.6887E+00  0.9351E+00
      1.954  0.6478E+00  0.9910E+00
      2.040  0.6210E+00  0.1045E+01
      2.127  0.5909E+00  0.1096E+01
      2.213  0.5630E+00  0.1144E+01
      2.299  0.5458E+00  0.1191E+01
      2.386  0.5332E+00  0.1237E+01
      2.472  0.5198E+00  0.1282E+01
      2.558  0.5055E+00  0.1326E+01
      2.645  0.4922E+00  0.1368E+01
      2.731  0.4806E+00  0.1410E+01
      2.817  0.4708E+00  0.1451E+01
      2.904  0.4624E+00  0.1490E+01
      2.990  0.4545E+00  0.1530E+01
      3.076  0.4462E+00  0.1568E+01
      3.163  0.4367E+00  0.1606E+01
      3.249  0.4261E+00  0.1643E+01
      3.335  0.4158E+00  0.1679E+01
      3.422  0.4093E+00  0.1714E+01
      3.508  0.4102E+00  0.1749E+01
      3.594  0.4195E+00  0.1786E+01
      3.681  0.4324E+00  0.1823E+01
      3.767  0.4393E+00  0.1861E+01
      3.853  0.4331E+00  0.1898E+01
      3.940  0.4161E+00  0.1934E+01
      4.026  0.6362E+00  0.1989E+01
      4.112  0.4584E+00  0.2029E+01
      4.199  0.6148E+00  0.2082E+01
      4.285  0.4402E+00  0.2120E+01
      4.371  0.4554E+00  0.2159E+01
      4.458  0.4489E+00  0.2198E+01
      4.544  0.4436E+00  0.2236E+01
      4.630  0.4554E+00  0.2275E+01
      4.717  0.4841E+00  0.2317E+01
      4.803  0.5182E+00  0.2362E+01
      4.889  0.5606E+00  0.2410E+01
      4.976  0.6100E+00  0.2463E+01
      5.062  0.6775E+00  0.2521E+01
      5.148  0.7771E+00  0.2589E+01
      5.235  0.3050E+01  0.2852E+01
      5.321  0.9692E+01  0.3689E+01
      5.407  0.2734E+01  0.3925E+01
      5.494  0.1941E+01  0.4092E+01
      5.580  0.1757E+01  0.4244E+01
      5.666  0.1662E+01  0.4387E+01
      5.753  0.1623E+01  0.4527E+01
      5.839  0.1869E+01  0.4689E+01
      5.925  0.7034E+01  0.5296E+01
      6.012  0.4919E+01  0.5721E+01
      6.098  0.7105E+01  0.6334E+01
      6.184  0.7055E+01  0.6943E+01
      6.271  0.3323E+01  0.7230E+01
      6.357  0.3130E+01  0.7500E+01
      6.443  0.6328E+01  0.8047E+01
      6.530  0.6832E+01  0.8636E+01
      6.616  0.3694E+01  0.8955E+01
      6.702  0.3269E+01  0.9237E+01
      6.789  0.3113E+01  0.9506E+01
      6.875  0.2984E+01  0.9764E+01
      6.961  0.2737E+01  0.1000E+02
      7.048  0.2677E+01  0.1023E+02
      7.134  0.2897E+01  0.1048E+02
      7.220  0.2674E+01  0.1071E+02
      7.307  0.3858E+01  0.1105E+02
      7.393  0.1080E+02  0.1198E+02
      7.479  0.8497E+01  0.1271E+02
      7.566  0.5761E+01  0.1321E+02
      7.652  0.4211E+01  0.1357E+02
      7.738  0.4308E+01  0.1394E+02
      7.825  0.5530E+01  0.1442E+02
      7.911  0.5835E+01  0.1493E+02
      7.997  0.3746E+01  0.1525E+02
      8.084  0.6176E+01  0.1578E+02
      8.170  0.4737E+01  0.1619E+02
      8.256  0.4058E+01  0.1654E+02
      8.343  0.4735E+01  0.1695E+02
      8.429  0.7082E+01  0.1756E+02
      8.515  0.4733E+01  0.1797E+02
      8.602  0.4247E+01  0.1834E+02
      8.688  0.4947E+01  0.1876E+02
      8.774  0.4254E+01  0.1913E+02
      8.861  0.5561E+01  0.1961E+02
      8.947  0.7246E+01  0.2024E+02
      9.033  0.8136E+01  0.2094E+02
      9.119  0.1053E+02  0.2185E+02
      9.206  0.5781E+01  0.2235E+02
      9.292  0.6849E+01  0.2294E+02
      9.378  0.6592E+01  0.2351E+02
      9.465  0.6543E+01  0.2407E+02
      9.551  0.6993E+01  0.2468E+02
      9.637  0.8881E+01  0.2544E+02
      9.724  0.1498E+02  0.2674E+02
      9.810  0.9859E+01  0.2759E+02
      9.896  0.7460E+01  0.2823E+02
      9.983  0.5648E+01  0.2872E+02
     10.069  0.3094E+02  0.3139E+02
     10.155  0.6677E+01  0.3197E+02
     10.242  0.5897E+01  0.3248E+02
     10.328  0.4534E+01  0.3287E+02
     10.414  0.2078E+01  0.3305E+02
     10.501  0.3102E+01  0.3331E+02
     10.587  0.2773E+01  0.3355E+02
     10.673  0.2693E+01  0.3379E+02
     10.760  0.3115E+01  0.3406E+02
     10.846  0.2607E+01  0.3428E+02
     10.932  0.4826E+01  0.3470E+02
     11.019  0.7466E+01  0.3534E+02
     11.105  0.5233E+01  0.3579E+02
     11.191  0.8069E+01  0.3649E+02
     11.278  0.4717E+01  0.3690E+02
     11.364  0.4414E+01  0.3728E+02
     11.450  0.4487E+01  0.3767E+02
     11.537  0.4674E+01  0.3807E+02
     11.623  0.4471E+01  0.3846E+02
     11.709  0.4831E+01  0.3887E+02
     11.796  0.5388E+01  0.3934E+02
     11.882  0.7078E+01  0.3995E+02
     11.968  0.7737E+01  0.4062E+02
     12.055  0.4448E+01  0.4100E+02
     12.141  0.6987E+01  0.4160E+02
     12.227  0.2491E+02  0.4375E+02
     12.314 -0.2745E+00  0.4373E+02
     12.400  0.6165E+00  0.4378E+02
     12.486  0.1179E+01  0.4389E+02
     12.573  0.3733E+01  0.4421E+02
     12.659  0.1611E+01  0.4435E+02
     12.745  0.1103E+01  0.4444E+02
     12.832  0.9727E+00  0.4453E+02
     12.918  0.8835E+00  0.4460E+02
     13.004  0.8376E+00  0.4467E+02
     13.091  0.8344E+00  0.4475E+02
     13.177  0.8329E+00  0.4482E+02
     13.263  0.7899E+00  0.4489E+02
     13.350  0.7395E+00  0.4495E+02
     13.436  0.7391E+00  0.4501E+02
     13.522  0.7533E+00  0.4508E+02
     13.609  0.7083E+00  0.4514E+02
     13.695  0.6710E+00  0.4520E+02
     13.781  0.7270E+00  0.4526E+02
     13.868  0.7536E+00  0.4533E+02
     13.954  0.6475E+00  0.4538E+02
     14.040  0.6131E+00  0.4544E+02
     14.127  0.7366E+00  0.4550E+02
     14.213  0.7222E+00  0.4556E+02
     14.299  0.5712E+00  0.4561E+02
     14.386  0.6396E+00  0.4567E+02
     14.472  0.7553E+00  0.4573E+02
     14.558  0.6034E+00  0.4578E+02
     14.645  0.5652E+00  0.4583E+02
     14.731  0.7333E+00  0.4590E+02
     14.817  0.6387E+00  0.4595E+02
     14.904  0.5351E+00  0.4600E+02
     14.990  0.6968E+00  0.4606E+02
     15.076  0.6498E+00  0.4611E+02
     15.163  0.5319E+00  0.4616E+02
     15.249  0.6663E+00  0.4622E+02
     15.335  0.6407E+00  0.4627E+02
     15.422  0.5422E+00  0.4632E+02
     15.508  0.6393E+00  0.4637E+02
     15.594  0.6254E+00  0.4643E+02
     15.681  0.5590E+00  0.4648E+02
     15.767  0.6068E+00  0.4653E+02
     15.853  0.6196E+00  0.4658E+02
     15.940  0.5683E+00  0.4663E+02
     16.026  0.5762E+00  0.4668E+02
     16.112  0.6309E+00  0.4673E+02
     16.199  0.5425E+00  0.4678E+02
     16.285  0.5781E+00  0.4683E+02
     16.371  0.6448E+00  0.4689E+02
     16.458  0.4821E+00  0.4693E+02
     16.544  0.6294E+00  0.4698E+02
     16.630  0.6033E+00  0.4704E+02
     16.717  0.4651E+00  0.4708E+02
     16.803  0.6989E+00  0.4714E+02
     16.889  0.4785E+00  0.4718E+02
     16.976  0.5507E+00  0.4722E+02
     17.062  0.6760E+00  0.4728E+02
     17.148  0.4059E+00  0.4732E+02
     17.235  0.6907E+00  0.4738E+02
     17.321  0.5074E+00  0.4742E+02
     17.407  0.4912E+00  0.4746E+02
     17.494  0.6958E+00  0.4752E+02
     17.580  0.3985E+00  0.4756E+02
     17.666  0.6657E+00  0.4762E+02
     17.753  0.5263E+00  0.4766E+02
     17.839  0.4742E+00  0.4770E+02
     17.925  0.7197E+00  0.4776E+02
     18.012  0.6677E+00  0.4782E+02
     18.098  0.8154E+00  0.4789E+02
     18.184  0.5831E+00  0.4794E+02
     18.271  0.5775E+00  0.4799E+02
     18.357  0.2013E+00  0.4801E+02
     18.443  0.6074E+00  0.4806E+02
     18.530  0.6375E+00  0.4812E+02
     18.616  0.7274E+00  0.4818E+02
     18.702  0.7663E+00  0.4825E+02
     18.789  0.6050E+00  0.4830E+02
     18.875  0.4152E+00  0.4833E+02
     18.961  0.5448E+00  0.4838E+02
     19.048  0.4284E+00  0.4842E+02
     19.134  0.4443E+00  0.4846E+02
     19.220  0.5308E+00  0.4850E+02
     19.307  0.3540E+00  0.4853E+02
     19.393  0.6478E+00  0.4859E+02
     19.479  0.4096E+00  0.4862E+02
     19.566  0.4530E+00  0.4866E+02
     19.652  0.6420E+01  0.4922E+02
     19.738  0.6150E+01  0.4975E+02
     19.825  0.3727E+01  0.5007E+02
     19.911  0.3045E+01  0.5033E+02
     19.997  0.3032E+01  0.5059E+02
     20.084  0.2236E+01  0.5079E+02
     20.170  0.2042E+01  0.5096E+02
     20.256  0.6731E+00  0.5102E+02
     20.343  0.5892E+00  0.5107E+02
     20.429  0.7196E+00  0.5114E+02
     20.515  0.5528E+00  0.5118E+02
     20.602  0.2767E+00  0.5121E+02
     20.688  0.1007E+02  0.5208E+02
     20.774  0.6481E+01  0.5264E+02
     20.861  0.2696E+01  0.5287E+02
     20.947  0.1133E+01  0.5297E+02
     21.033  0.1101E+01  0.5306E+02
     21.120  0.4550E+00  0.5310E+02
     21.206  0.5783E+00  0.5315E+02
     21.292  0.6683E+00  0.5321E+02
     21.378  0.3578E+00  0.5324E+02
     21.465  0.8695E+00  0.5331E+02
     21.551  0.6609E+00  0.5337E+02
     21.637  0.7794E+00  0.5344E+02
     21.724  0.3716E+00  0.5347E+02
     21.810  0.4669E+00  0.5351E+02
     21.896  0.7671E+00  0.5358E+02
     21.983  0.6705E+00  0.5364E+02
     22.069  0.4698E+00  0.5368E+02
     22.155  0.2602E+00  0.5370E+02
     22.242  0.5012E+00  0.5374E+02
     22.328  0.4364E+00  0.5378E+02
     22.414  0.5025E+00  0.5382E+02
     22.501  0.3437E+00  0.5385E+02
     22.587  0.3143E+00  0.5388E+02
     22.673  0.7204E-01  0.5389E+02
     22.760  0.2955E+00  0.5391E+02
     22.846  0.1967E+00  0.5393E+02
     22.932  0.1394E+00  0.5394E+02
     23.019  0.5050E-01  0.5394E+02
     23.105  0.6104E-01  0.5395E+02
     23.191  0.7682E-01  0.5396E+02
     23.278  0.4101E-01  0.5396E+02
     23.364 -0.1206E-02  0.5396E+02
     23.450 -0.1919E-06  0.5396E+02
     23.537 -0.2043E-12  0.5396E+02
     23.623 -0.3914E-06  0.5396E+02
     23.709 -0.1653E-02  0.5396E+02
     23.796  0.4768E-01  0.5396E+02
     23.882  0.1813E+00  0.5398E+02
     23.968  0.4588E-02  0.5398E+02
     24.055 -0.2297E-03  0.5398E+02
     24.141 -0.1752E-05  0.5398E+02
     24.227 -0.2771E-02  0.5398E+02
     24.314  0.7478E-01  0.5399E+02
     24.400  0.4519E-01  0.5399E+02
     24.486 -0.1369E-02  0.5399E+02
     24.573 -0.2509E-03  0.5399E+02
     24.659  0.8113E-02  0.5399E+02
     24.745  0.1117E+00  0.5400E+02
     24.832 -0.3745E-02  0.5400E+02
     24.918 -0.2777E-04  0.5400E+02
     25.004 -0.1421E-09  0.5400E+02
     25.091  0.0000E+00  0.5400E+02
     25.177  0.0000E+00  0.5400E+02
     25.263  0.0000E+00  0.5400E+02
     25.350  0.0000E+00  0.5400E+02
     25.436  0.0000E+00  0.5400E+02
     25.522  0.0000E+00  0.5400E+02
     25.609  0.0000E+00  0.5400E+02
     25.695  0.0000E+00  0.5400E+02
     25.781  0.0000E+00  0.5400E+02
     25.868  0.0000E+00  0.5400E+02
     25.86770374     -0.03158377  301     11.12565589      1.00000000
     -0.032  0.0000E+00  0.0000E+00  0.0000E+00  0.0000E+00  0.0000E+00  0.0000E+00  0.0000E+00  0.0000E+00  0.0000E+00  0.0000E+00  0.0000E+00  0.0000E+00  0.0000E+00  0.0000E+00  0.0000E+00  0.0000E+00  0.0000E+00  0.0000E+00  0.0000E+00  0.0000E+00  0.0000E+00  0.0000E+00  0.0000E+00  0.0000E+00  0.0000E+00  0.0000E+00  0.0000E+00  0.0000E+00  0.0000E+00  0.0000E+00  0.0000E+00  0.0000E+00  0.0000E+00  0.0000E+00  0.0000E+00  0.0000E+00
      0.055  0.0000E+00  0.0000E+00  0.0000E+00  0.0000E+00  0.0000E+00  0.0000E+00  0.0000E+00  0.0000E+00  0.0000E+00  0.0000E+00  0.0000E+00  0.0000E+00  0.0000E+00  0.0000E+00  0.0000E+00  0.0000E+00  0.0000E+00  0.0000E+00  0.0000E+00  0.0000E+00  0.0000E+00  0.0000E+00  0.0000E+00  0.0000E+00  0.0000E+00  0.0000E+00  0.0000E+00  0.0000E+00  0.0000E+00  0.0000E+00  0.0000E+00  0.0000E+00  0.0000E+00  0.0000E+00  0.0000E+00  0.0000E+00
      0.141  0.0000E+00  0.0000E+00  0.0000E+00  0.0000E+00  0.0000E+00  0.0000E+00  0.0000E+00  0.0000E+00  0.0000E+00  0.0000E+00  0.0000E+00  0.0000E+00  0.0000E+00  0.0000E+00  0.0000E+00  0.0000E+00  0.0000E+00  0.0000E+00  0.0000E+00  0.0000E+00  0.0000E+00  0.0000E+00  0.0000E+00  0.0000E+00  0.0000E+00  0.0000E+00  0.0000E+00  0.0000E+00  0.0000E+00  0.0000E+00  0.0000E+00  0.0000E+00  0.0000E+00  0.0000E+00  0.0000E+00  0.0000E+00
      0.227  0.0000E+00  0.0000E+00  0.0000E+00  0.0000E+00  0.0000E+00  0.0000E+00  0.0000E+00  0.0000E+00  0.0000E+00  0.0000E+00  0.0000E+00  0.0000E+00  0.0000E+00  0.0000E+00  0.0000E+00  0.0000E+00  0.0000E+00  0.0000E+00  0.0000E+00  0.0000E+00  0.0000E+00  0.0000E+00  0.0000E+00  0.0000E+00  0.0000E+00  0.0000E+00  0.0000E+00  0.0000E+00  0.0000E+00  0.0000E+00  0.0000E+00  0.0000E+00  0.0000E+00  0.0000E+00  0.0000E+00  0.0000E+00
      0.314  0.0000E+00  0.0000E+00  0.0000E+00  0.0000E+00  0.0000E+00  0.0000E+00  0.0000E+00  0.0000E+00  0.0000E+00  0.0000E+00  0.0000E+00  0.0000E+00  0.0000E+00  0.0000E+00  0.0000E+00  0.0000E+00  0.0000E+00  0.0000E+00  0.0000E+00  0.0000E+00  0.0000E+00  0.0000E+00  0.0000E+00  0.0000E+00  0.0000E+00  0.0000E+00  0.0000E+00  0.0000E+00  0.0000E+00  0.0000E+00  0.0000E+00  0.0000E+00  0.0000E+00  0.0000E+00  0.0000E+00  0.0000E+00
      0.400  0.0000E+00  0.0000E+00  0.0000E+00  0.0000E+00  0.0000E+00  0.0000E+00  0.0000E+00  0.0000E+00  0.0000E+00  0.0000E+00  0.0000E+00  0.0000E+00  0.0000E+00  0.0000E+00  0.0000E+00  0.0000E+00  0.0000E+00  0.0000E+00  0.0000E+00  0.0000E+00  0.0000E+00  0.0000E+00  0.0000E+00  0.0000E+00  0.0000E+00  0.0000E+00  0.0000E+00  0.0000E+00  0.0000E+00  0.0000E+00  0.0000E+00  0.0000E+00  0.0000E+00  0.0000E+00  0.0000E+00  0.0000E+00
      0.486  0.0000E+00  0.0000E+00  0.0000E+00  0.0000E+00  0.0000E+00  0.0000E+00  0.0000E+00  0.0000E+00  0.0000E+00  0.0000E+00  0.0000E+00  0.0000E+00  0.0000E+00  0.0000E+00  0.0000E+00  0.0000E+00  0.0000E+00  0.0000E+00  0.0000E+00  0.0000E+00  0.0000E+00  0.0000E+00  0.0000E+00  0.0000E+00  0.0000E+00  0.0000E+00  0.0000E+00  0.0000E+00  0.0000E+00  0.0000E+00  0.0000E+00  0.0000E+00  0.0000E+00  0.0000E+00  0.0000E+00  0.0000E+00
      0.573  0.0000E+00  0.0000E+00  0.0000E+00  0.0000E+00  0.0000E+00  0.0000E+00  0.0000E+00  0.0000E+00  0.0000E+00  0.0000E+00  0.0000E+00  0.0000E+00  0.0000E+00  0.0000E+00  0.0000E+00  0.0000E+00  0.0000E+00  0.0000E+00  0.0000E+00  0.0000E+00  0.0000E+00  0.0000E+00  0.0000E+00  0.0000E+00  0.0000E+00  0.0000E+00  0.0000E+00  0.0000E+00  0.0000E+00  0.0000E+00  0.0000E+00  0.0000E+00  0.0000E+00  0.0000E+00  0.0000E+00  0.0000E+00
      0.659  0.0000E+00  0.0000E+00  0.0000E+00  0.0000E+00  0.0000E+00  0.0000E+00  0.0000E+00  0.0000E+00  0.0000E+00  0.0000E+00  0.0000E+00  0.0000E+00  0.0000E+00  0.0000E+00  0.0000E+00  0.0000E+00  0.0000E+00  0.0000E+00  0.0000E+00  0.0000E+00  0.0000E+00  0.0000E+00  0.0000E+00  0.0000E+00  0.0000E+00  0.0000E+00  0.0000E+00  0.0000E+00  0.0000E+00  0.0000E+00  0.0000E+00  0.0000E+00  0.0000E+00  0.0000E+00  0.0000E+00  0.0000E+00
      0.745 -0.2517E-28  0.1377E-40  0.1146E-41 -0.2517E-28 -0.2691E-32  0.9483E-44 -0.5901E-44 -0.2691E-32 -0.2871E-37  0.2883E-46  0.2512E-45 -0.2871E-37 -0.2574E-37 -0.2866E-46  0.1711E-46  0.2574E-37 -0.1224E-35 -0.2139E-46 -0.3259E-46  0.1224E-35 -0.1176E-40 -0.2881E-48 -0.7464E-48 -0.1176E-40 -0.2049E-34  0.3227E-46 -0.1328E-47 -0.2049E-34 -0.1224E-35 -0.5337E-47 -0.6120E-47  0.1224E-35 -0.7091E-34  0.2540E-47 -0.6941E-46 -0.7091E-34
      0.832 -0.1110E-17  0.2121E-29 -0.1545E-31 -0.1110E-17 -0.1558E-21  0.9199E-33 -0.5578E-33 -0.1558E-21 -0.1662E-26  0.2735E-35  0.2382E-34 -0.1662E-26 -0.1490E-26 -0.2736E-35  0.1652E-35  0.1490E-26 -0.5402E-25 -0.1913E-35 -0.3180E-35  0.5402E-25 -0.8610E-30 -0.2727E-37 -0.7069E-37 -0.8609E-30 -0.8888E-24  0.3111E-35 -0.1664E-36 -0.8887E-24 -0.5402E-25 -0.2260E-36 -0.2574E-36  0.5402E-25 -0.3212E-23  0.1697E-35 -0.6725E-35 -0.3212E-23
      0.918 -0.1150E-09  0.5119E-21 -0.1383E-22 -0.1149E-09 -0.2302E-13  0.2020E-24 -0.1209E-24 -0.2301E-13 -0.2457E-18  0.5943E-27  0.5173E-26 -0.2456E-18 -0.2203E-18 -0.5960E-27  0.3611E-27  0.2202E-18 -0.5596E-17 -0.4042E-27 -0.6982E-27  0.5592E-17 -0.1730E-21 -0.5918E-29 -0.1534E-28 -0.1729E-21 -0.8960E-16  0.6720E-27 -0.4007E-28 -0.8952E-16 -0.5596E-17 -0.2307E-28 -0.2617E-28  0.5592E-17 -0.3494E-15  0.4801E-27 -0.1473E-26 -0.3491E-15
      1.004 -0.2755E-04  0.2409E-15 -0.8225E-17 -0.2729E-04 -0.9250E-08  0.9685E-19 -0.5755E-19 -0.9185E-08 -0.9877E-13  0.2842E-21  0.2468E-20 -0.9811E-13 -0.8864E-13 -0.2842E-21  0.1721E-21  0.8789E-13 -0.1343E-11 -0.1904E-21 -0.3342E-21  0.1327E-11 -0.1076E-15 -0.2822E-23 -0.7316E-23 -0.1074E-15 -0.2059E-10  0.3122E-21 -0.2014E-22 -0.2023E-10 -0.1343E-11 -0.5810E-23 -0.6596E-23  0.1327E-11 -0.9423E-10  0.2310E-21 -0.7051E-21 -0.9278E-10
      1.091 -0.8789E-02  0.4517E-13 -0.5296E-14 -0.6256E-02 -0.8961E-05  0.5201E-16 -0.3072E-16 -0.7680E-05 -0.9548E-10  0.1656E-18  0.1333E-17 -0.8257E-10 -0.8711E-10 -0.1465E-18  0.8999E-19  0.7253E-10 -0.4474E-09 -0.1013E-18 -0.1822E-18  0.2879E-09 -0.2233E-12 -0.1519E-20 -0.3924E-20 -0.2140E-12 -0.7205E-08  0.1152E-18 -0.1437E-19 -0.4096E-08 -0.4473E-09 -0.1885E-20 -0.2062E-20  0.2877E-09 -0.5456E-07 -0.4624E-19 -0.3782E-18 -0.3795E-07
      1.177  0.2460E+00 -0.5202E-12  0.1407E-12  0.1652E+00  0.2111E-03 -0.1279E-14  0.7630E-15  0.2109E-03  0.2256E-08 -0.4280E-17 -0.3325E-16  0.2255E-08  0.2023E-08  0.3558E-17 -0.2214E-17 -0.2022E-08  0.1258E-07  0.2516E-17  0.4563E-17 -0.7502E-08  0.3435E-11  0.3778E-19  0.9747E-19  0.4232E-11  0.1786E-06 -0.2229E-17  0.4099E-18  0.7544E-07  0.1258E-07  0.5027E-19  0.5239E-19 -0.7500E-08  0.1276E-05  0.2114E-17  0.9273E-17  0.9659E-06
      1.263  0.4879E+00  0.1928E-10  0.3272E-12 -0.8234E-01  0.1912E-02 -0.5710E-15  0.1283E-14  0.4903E-03  0.2012E-07 -0.2563E-17 -0.1116E-16  0.5739E-08  0.1972E-07 -0.4034E-17 -0.1601E-17 -0.3473E-08  0.2822E-07  0.7874E-18  0.1675E-17  0.7800E-08  0.1080E-09 -0.3636E-19 -0.4141E-19  0.7950E-10  0.1355E-05  0.3265E-17 -0.2251E-17  0.8943E-06  0.2825E-07  0.2727E-19  0.2275E-19  0.8013E-08  0.1248E-04  0.5030E-16 -0.1999E-16  0.2979E-05
      1.350  0.2579E+00  0.8176E-11  0.6329E-12 -0.2035E-01  0.3348E-02 -0.7798E-15 -0.2921E-13  0.2644E-03  0.3537E-07 -0.3935E-16  0.9988E-17  0.3892E-08  0.3538E-07  0.9849E-16  0.3544E-16  0.1711E-09  0.1541E-07 -0.3044E-17  0.3868E-17  0.2425E-08  0.3877E-09  0.1281E-17  0.1747E-17  0.2253E-09  0.5503E-05 -0.3907E-16  0.6606E-16  0.2940E-05  0.1536E-07 -0.3375E-19  0.3647E-19  0.3011E-08  0.3235E-04 -0.8052E-17  0.6665E-15  0.6757E-05
      1.436  0.2001E+00  0.4596E-11  0.5867E-12 -0.9413E-02  0.4280E-02 -0.3399E-14 -0.1493E-13  0.2109E-03  0.4565E-07 -0.6933E-17 -0.6951E-17  0.3651E-08  0.4583E-07  0.6135E-16  0.2003E-16  0.1604E-08  0.1262E-07 -0.1014E-17  0.1568E-17  0.1029E-08  0.8093E-09  0.8612E-19  0.1518E-17  0.4325E-09  0.1282E-04 -0.7909E-18  0.1660E-16  0.4805E-05  0.1232E-07  0.5386E-19  0.1355E-19  0.2030E-08  0.5958E-04  0.1056E-15  0.2552E-15  0.1137E-04
      1.522  0.1689E+00  0.3225E-11 -0.1509E-12 -0.5617E-02  0.5045E-02 -0.1352E-14  0.5239E-15  0.1842E-03  0.5434E-07  0.4766E-17 -0.9910E-17  0.3630E-08  0.5463E-07 -0.6634E-18 -0.1619E-17  0.2627E-08  0.1145E-07 -0.2228E-19 -0.3929E-18  0.1312E-09  0.1370E-08 -0.9652E-19  0.9578E-19  0.7125E-09  0.2244E-04  0.9646E-17 -0.2231E-17  0.6897E-05  0.1077E-07  0.1174E-19 -0.1438E-19  0.1626E-08  0.9319E-04  0.3021E-16 -0.2155E-16  0.1705E-04
      1.609  0.1485E+00  0.1444E-11  0.2389E-12 -0.3763E-02  0.5712E-02 -0.4026E-15 -0.1520E-15  0.1685E-03  0.6214E-07 -0.2131E-18  0.3031E-18  0.3688E-08  0.6254E-07  0.4674E-19  0.4681E-20  0.3463E-08  0.1102E-07 -0.4826E-20  0.8642E-20 -0.6651E-09  0.2081E-08  0.2826E-20 -0.2207E-20  0.1077E-08  0.3416E-04 -0.2851E-16 -0.9917E-17  0.9283E-05  0.9835E-08 -0.2932E-19  0.6984E-20  0.1403E-08  0.1329E-03  0.5102E-16 -0.8660E-17  0.2384E-04
      1.695  0.1340E+00  0.8820E-12  0.3123E-12 -0.2682E-02  0.6317E-02 -0.3060E-15 -0.1574E-15  0.1604E-03  0.6941E-07 -0.4822E-20 -0.1120E-18  0.3796E-08  0.6990E-07  0.2254E-19  0.7136E-20  0.4180E-08  0.1105E-07 -0.7542E-20  0.2775E-19 -0.1472E-08  0.2960E-08  0.1568E-20  0.1735E-20  0.1542E-08  0.4795E-04 -0.2701E-17  0.1328E-17  0.1204E-04  0.9219E-08  0.1143E-19 -0.1611E-19  0.1261E-08  0.1788E-03 -0.1543E-16 -0.2141E-16  0.3193E-04
      1.781  0.1228E+00  0.6378E-12 -0.8235E-13 -0.2107E-02  0.6867E-02 -0.3278E-15 -0.2937E-15  0.1484E-03  0.7622E-07  0.4501E-17 -0.6632E-17  0.3837E-08  0.7680E-07  0.1009E-17  0.6560E-17  0.4906E-08  0.1141E-07  0.1536E-19  0.6924E-18 -0.2322E-08  0.4027E-08 -0.3288E-18  0.5679E-18  0.2118E-08  0.6379E-04 -0.9347E-17  0.6879E-16  0.1512E-04  0.8783E-08 -0.2849E-20  0.3105E-19  0.1170E-08  0.2309E-03  0.4844E-16 -0.1070E-15  0.4113E-04
      1.868  0.1140E+00 -0.2867E-12 -0.8027E-13 -0.1364E-02  0.7386E-02 -0.2539E-13  0.4747E-14  0.1640E-03  0.8282E-07  0.1197E-16  0.7957E-16  0.4166E-08  0.8346E-07  0.4967E-16 -0.4379E-16  0.5312E-08  0.1210E-07  0.5733E-17 -0.4542E-17 -0.3284E-08  0.5315E-08 -0.1202E-17 -0.8120E-17  0.2846E-08  0.8176E-04  0.1137E-14 -0.3684E-15  0.1889E-04  0.8484E-08 -0.1507E-19 -0.1972E-18  0.1080E-08  0.2896E-03  0.9419E-15 -0.2970E-16  0.5270E-04
      1.954  0.1062E+00 -0.2750E-12 -0.5846E-13 -0.1489E-02  0.7843E-02 -0.5193E-14 -0.1185E-14  0.1247E-03  0.8882E-07  0.2163E-17  0.2319E-16  0.3846E-08  0.8958E-07  0.1907E-16 -0.1413E-16  0.6298E-08  0.1299E-07  0.1440E-17 -0.1465E-17 -0.4239E-08  0.6808E-08 -0.3304E-18 -0.2611E-17  0.3675E-08  0.1015E-03  0.1753E-15 -0.1985E-15  0.2236E-04  0.8241E-08 -0.5449E-19 -0.6348E-19  0.1059E-08  0.3535E-03  0.5117E-15  0.9708E-16  0.6320E-04
      2.040  0.1009E+00 -0.8545E-13  0.7019E-12 -0.1076E-02  0.8369E-02  0.5690E-15 -0.3679E-15  0.1466E-03  0.9574E-07 -0.8399E-19 -0.6436E-18  0.4241E-08  0.9655E-07 -0.6287E-18  0.3865E-18  0.6654E-08  0.1437E-07 -0.3987E-19  0.8123E-19 -0.5460E-08  0.8705E-08  0.4468E-20  0.6910E-19  0.4802E-08  0.1249E-03  0.1236E-16  0.1796E-16  0.2759E-04  0.8158E-08  0.3829E-19  0.1241E-19  0.1010E-08  0.4292E-03 -0.1043E-16  0.2774E-16  0.7948E-04
      2.127  0.9510E-01 -0.7775E-12  0.4996E-12  0.1047E-03  0.8763E-02  0.1044E-15 -0.1884E-15  0.2331E-03  0.1012E-06 -0.8027E-19  0.1405E-19  0.5321E-08  0.1020E-06 -0.2002E-19 -0.9927E-20  0.6146E-08  0.1591E-07  0.1166E-19 -0.7481E-20 -0.6839E-08  0.1084E-07 -0.6961E-20 -0.7002E-20  0.6140E-08  0.1491E-03 -0.1601E-17 -0.1780E-17  0.3398E-04  0.8012E-08 -0.2430E-19  0.2736E-19  0.8905E-09  0.5068E-03 -0.6701E-16  0.3935E-16  0.9988E-04
      2.213  0.8974E-01 -0.1343E-11  0.1390E-12 -0.5165E-03  0.9110E-02  0.1784E-15 -0.2896E-15  0.1558E-03  0.1063E-06 -0.2643E-19 -0.3432E-19  0.4480E-08  0.1072E-06 -0.5999E-19 -0.2250E-19  0.7520E-08  0.1761E-07 -0.9517E-20  0.3606E-19 -0.8034E-08  0.1320E-07  0.2228E-19  0.6117E-20  0.7500E-08  0.1747E-03 -0.6815E-16 -0.1186E-16  0.3806E-04  0.7904E-08  0.6932E-20  0.4041E-21  0.9243E-09  0.5889E-03 -0.3098E-16  0.1210E-16  0.1124E-03
      2.299  0.8613E-01 -0.1106E-11  0.1485E-12 -0.1480E-02  0.9562E-02  0.4678E-15 -0.3844E-15  0.4231E-04  0.1126E-06  0.2831E-17  0.5956E-18  0.3222E-08  0.1138E-06 -0.3235E-20  0.3493E-19  0.9452E-08  0.1988E-07 -0.6055E-19  0.2926E-19 -0.9402E-08  0.1612E-07 -0.6903E-18 -0.1685E-18  0.9175E-08  0.2051E-03 -0.6662E-16  0.5808E-16  0.4240E-04  0.7942E-08 -0.3142E-19  0.8316E-20  0.1006E-08  0.6866E-03  0.5053E-16 -0.1756E-16  0.1257E-03
      2.386  0.8329E-01 -0.9822E-12  0.7561E-13 -0.1273E-02  0.1005E-01 -0.7934E-15 -0.2400E-14  0.5361E-04  0.1195E-06  0.2245E-16  0.4526E-17  0.3416E-08  0.1207E-06  0.5247E-18 -0.8579E-19  0.9958E-08  0.2281E-07 -0.3942E-18  0.3406E-18 -0.1125E-07  0.1977E-07 -0.5597E-17 -0.1222E-17  0.1144E-07  0.2402E-03  0.3168E-16  0.6377E-15  0.5027E-04  0.8036E-08  0.2774E-19  0.1758E-19  0.9881E-09  0.7989E-03  0.3860E-15 -0.2116E-15  0.1506E-03
      2.472  0.8034E-01 -0.7729E-12  0.1393E-12 -0.4403E-03  0.1048E-01  0.1229E-14 -0.5361E-15  0.1465E-03  0.1258E-06 -0.1280E-18 -0.2180E-18  0.4554E-08  0.1270E-06  0.1759E-18 -0.1062E-18  0.9432E-08  0.2627E-07  0.1380E-18  0.3799E-19 -0.1347E-07  0.2407E-07  0.2781E-18  0.1415E-18  0.1428E-07  0.2781E-03  0.1390E-16  0.1524E-16  0.6104E-04  0.8112E-08 -0.1483E-20  0.1078E-19  0.9048E-09  0.9200E-03 -0.1384E-15  0.3870E-16  0.1852E-03
      2.558  0.7731E-01 -0.1309E-11 -0.1476E-13  0.2097E-03  0.1085E-01  0.1122E-14 -0.2486E-15  0.2298E-03  0.1315E-06 -0.6030E-19  0.4094E-20  0.5559E-08  0.1327E-06 -0.5064E-19  0.1003E-18  0.8955E-08  0.3021E-07 -0.3600E-19 -0.1032E-18 -0.1588E-07  0.2901E-07 -0.5167E-20 -0.8933E-20  0.1758E-07  0.3184E-03  0.4557E-16  0.2665E-17  0.7285E-04  0.8180E-08 -0.1728E-19  0.5600E-20  0.8301E-09  0.1049E-02 -0.1593E-15 -0.4375E-17  0.2231E-03
      2.645  0.7444E-01 -0.9291E-12 -0.1254E-13  0.4564E-03  0.1120E-01  0.1620E-14 -0.7106E-16  0.2679E-03  0.1370E-06  0.4651E-21 -0.2977E-19  0.6006E-08  0.1383E-06  0.3996E-19  0.1654E-18  0.9001E-08  0.3473E-07 -0.1292E-19 -0.7626E-19 -0.1844E-07  0.3469E-07 -0.2912E-20 -0.3226E-20  0.2136E-07  0.3618E-03 -0.1475E-16  0.1011E-17  0.8483E-04  0.8269E-08 -0.1127E-19 -0.5544E-20  0.7923E-09  0.1187E-02 -0.5622E-16  0.9842E-17  0.2616E-03
      2.731  0.7187E-01  0.2529E-12 -0.5576E-12  0.4187E-03  0.1155E-01  0.1450E-15  0.6025E-15  0.2677E-03  0.1426E-06  0.3416E-19  0.4553E-19  0.5965E-08  0.1440E-06 -0.3208E-19 -0.9982E-19  0.9527E-08  0.3999E-07  0.5385E-19 -0.3734E-19 -0.2121E-07  0.4128E-07  0.1151E-19 -0.7110E-20  0.2573E-07  0.4092E-03  0.7583E-17  0.2480E-16  0.9713E-04  0.8395E-08 -0.1934E-19  0.1335E-19  0.7851E-09  0.1338E-02  0.7677E-16 -0.9398E-16  0.3011E-03
      2.817  0.6959E-01 -0.9425E-12  0.2322E-12  0.2481E-03  0.1191E-01  0.2278E-14 -0.2026E-15  0.2445E-03  0.1483E-06 -0.4111E-18  0.2150E-18  0.5611E-08  0.1498E-06 -0.1411E-18 -0.1442E-18  0.1037E-07  0.4613E-07 -0.3351E-19  0.3899E-19 -0.2425E-07  0.4898E-07 -0.1234E-18  0.6353E-19  0.3082E-07  0.4614E-03  0.1876E-15  0.4658E-16  0.1101E-03  0.8559E-08 -0.3034E-19 -0.1656E-20  0.7957E-09  0.1504E-02 -0.8849E-16  0.4385E-17  0.3429E-03
      2.904  0.6753E-01 -0.2413E-11 -0.4508E-12  0.5485E-04  0.1227E-01  0.3784E-14  0.3380E-15  0.2123E-03  0.1541E-06 -0.1855E-18  0.1178E-18  0.5103E-08  0.1558E-06 -0.3167E-18 -0.6801E-21  0.1135E-07  0.5332E-07 -0.6306E-19  0.1026E-18 -0.2762E-07  0.5798E-07 -0.5944E-19  0.2232E-19  0.3679E-07  0.5187E-03  0.7993E-16  0.4554E-16  0.1244E-03  0.8760E-08 -0.2535E-19  0.1277E-19  0.8128E-09  0.1686E-02 -0.2057E-15 -0.7054E-16  0.3887E-03
      2.990  0.6556E-01 -0.8453E-12 -0.3755E-12 -0.1201E-03  0.1262E-01  0.9607E-14 -0.3126E-14  0.1770E-03  0.1598E-06  0.3390E-18  0.6125E-17  0.4503E-08  0.1617E-06 -0.3056E-18 -0.1503E-18  0.1238E-07  0.6165E-07  0.4452E-18  0.1774E-18 -0.3132E-07  0.6841E-07  0.1593E-17  0.8300E-18  0.4374E-07  0.5810E-03 -0.1750E-14 -0.2234E-14  0.1398E-03  0.8981E-08  0.4756E-19 -0.9379E-19  0.8305E-09  0.1885E-02 -0.1262E-14  0.4567E-15  0.4387E-03
      3.076  0.6355E-01 -0.4673E-11  0.5896E-12 -0.1558E-03  0.1292E-01 -0.1973E-12  0.8462E-13  0.1632E-03  0.1651E-06 -0.7286E-17 -0.1683E-15  0.4119E-08  0.1670E-06  0.9718E-17  0.9686E-17  0.1311E-07  0.7119E-07 -0.1081E-16 -0.4041E-17 -0.3543E-07  0.8041E-07 -0.4344E-16 -0.2264E-16  0.5183E-07  0.6475E-03  0.4664E-13  0.6155E-13  0.1576E-03  0.9205E-08 -0.2202E-17  0.2837E-17  0.8295E-09  0.2096E-02  0.3089E-13 -0.1618E-13  0.4964E-03
      3.163  0.6139E-01 -0.7069E-11  0.8367E-13  0.4447E-04  0.1316E-01 -0.1199E-12  0.5787E-13  0.1983E-03  0.1695E-06 -0.5644E-17 -0.1149E-15  0.4308E-08  0.1715E-06  0.6552E-17  0.6804E-17  0.1314E-07  0.8197E-07 -0.7354E-17 -0.3004E-17 -0.4011E-07  0.9406E-07 -0.3064E-16 -0.1498E-16  0.6130E-07  0.7168E-03  0.3284E-13  0.4204E-13  0.1792E-03  0.9411E-08 -0.1573E-17  0.1982E-17  0.7889E-09  0.2317E-02  0.1821E-13 -0.1145E-13  0.5665E-03
      3.249  0.5910E-01 -0.1972E-11  0.2332E-12  0.5477E-03  0.1332E-01  0.4196E-13  0.9731E-14  0.3097E-03  0.1728E-06  0.2028E-16 -0.1504E-16  0.5456E-08  0.1748E-06  0.3915E-17 -0.1625E-17  0.1207E-07  0.9406E-07  0.9408E-18  0.1170E-17 -0.4565E-07  0.1096E-06  0.2343E-16 -0.1611E-16  0.7257E-07  0.7885E-03 -0.3424E-13 -0.3074E-14  0.2071E-03  0.9592E-08  0.1453E-17 -0.1502E-18  0.6873E-09  0.2544E-02  0.2537E-14  0.1038E-13  0.6570E-03
      3.335  0.5689E-01  0.1134E-12  0.1832E-11  0.1209E-02  0.1344E-01 -0.6930E-12  0.1457E-12  0.4793E-03  0.1758E-06  0.1027E-15 -0.5802E-16  0.7370E-08  0.1776E-06 -0.5915E-16 -0.8519E-17  0.1014E-07  0.1078E-06 -0.4911E-16 -0.7145E-17 -0.5239E-07  0.1274E-06  0.7179E-16 -0.3516E-16  0.8610E-07  0.8641E-03  0.1566E-12  0.1459E-12  0.2423E-03  0.9777E-08  0.6032E-17  0.5077E-17  0.5369E-09  0.2785E-02  0.9664E-12 -0.4463E-13  0.7712E-03
      3.422  0.5522E-01 -0.2405E-11  0.6787E-11  0.1687E-02  0.1365E-01 -0.1427E-11 -0.1016E-13  0.6315E-03  0.1796E-06  0.1574E-15 -0.2399E-16  0.9080E-08  0.1814E-06 -0.1471E-15  0.5894E-17  0.8495E-08  0.1239E-06 -0.1052E-15  0.5500E-17 -0.6048E-07  0.1487E-06  0.1163E-15 -0.1469E-16  0.1025E-06  0.9506E-03  0.5329E-12  0.2078E-12  0.2832E-03  0.1005E-07  0.1587E-17  0.1677E-17  0.3953E-09  0.3060E-02  0.1691E-11  0.4022E-12  0.9040E-03
      3.508  0.5456E-01 -0.1235E-10  0.9535E-11  0.1539E-02  0.1408E-01 -0.6515E-12 -0.4697E-12  0.6411E-03  0.1865E-06  0.7503E-16  0.7042E-16  0.8895E-08  0.1885E-06 -0.1048E-15  0.3640E-16  0.9023E-08  0.1442E-06 -0.6135E-16  0.4057E-16 -0.6961E-07  0.1751E-06  0.1003E-15  0.2154E-16  0.1220E-06  0.1060E-02  0.4985E-12 -0.4590E-13  0.3243E-03  0.1055E-07 -0.1125E-16 -0.1396E-16  0.3625E-09  0.3408E-02  0.4454E-12  0.1070E-11  0.1037E-02