   2   2   1   0
  0.2042676E+02  0.3865878E-09  0.3865878E-09  0.3865878E-09  0.5000000E-15
  1.000000000000000E-004
  CAR 
 diamond Si                              
     30.52783507     -7.75434115  301      6.11994092      1.00000000
     -7.754  0.0000E+00  0.0000E+00
     -7.627  0.0000E+00  0.0000E+00
     -7.499  0.0000E+00  0.0000E+00
     -7.372  0.0000E+00  0.0000E+00
     -7.244  0.0000E+00  0.0000E+00
     -7.116  0.0000E+00  0.0000E+00
     -6.989  0.0000E+00  0.0000E+00
     -6.861  0.0000E+00  0.0000E+00
     -6.733  0.0000E+00  0.0000E+00
     -6.606  0.3263E-16  0.4163E-17
     -6.478  0.2104E-10  0.2685E-11
     -6.351  0.8547E-06  0.1091E-06
     -6.223  0.1571E-02  0.2006E-03
     -6.095  0.1532E+00  0.1974E-01
     -5.968  0.1135E+01  0.1645E+00
     -5.840  0.1260E+01  0.3253E+00
     -5.713  0.7771E+00  0.4244E+00
     -5.585  0.6036E+00  0.5015E+00
     -5.457  0.5171E+00  0.5675E+00
     -5.330  0.4647E+00  0.6268E+00
     -5.202  0.4209E+00  0.6805E+00
     -5.075  0.3939E+00  0.7307E+00
     -4.947  0.3754E+00  0.7786E+00
     -4.819  0.3429E+00  0.8224E+00
     -4.692  0.3438E+00  0.8663E+00
     -4.564  0.3279E+00  0.9081E+00
     -4.437  0.3089E+00  0.9475E+00
     -4.309  0.3185E+00  0.9882E+00
     -4.181  0.3087E+00  0.1028E+01
     -4.054  0.3015E+00  0.1066E+01
     -3.926  0.3359E+00  0.1109E+01
     -3.799  0.3694E+00  0.1156E+01
     -3.671  0.4536E+00  0.1214E+01
     -3.543  0.2482E+00  0.1246E+01
     -3.416  0.1317E+00  0.1262E+01
     -3.288  0.2137E+00  0.1290E+01
     -3.160  0.9822E-01  0.1302E+01
     -3.033  0.2000E+00  0.1328E+01
     -2.905  0.1680E+00  0.1349E+01
     -2.778  0.1110E+00  0.1363E+01
     -2.650  0.2946E+00  0.1401E+01
     -2.522  0.9602E+00  0.1523E+01
     -2.395  0.1487E+01  0.1713E+01
     -2.267  0.1023E+01  0.1844E+01
     -2.140  0.4605E+00  0.1902E+01
     -2.012  0.3393E+00  0.1946E+01
     -1.884  0.6045E+00  0.2023E+01
     -1.757  0.4141E+00  0.2076E+01
     -1.629  0.2471E+00  0.2107E+01
     -1.502  0.3345E+00  0.2150E+01
     -1.374  0.4569E+00  0.2208E+01
     -1.246  0.7379E+00  0.2302E+01
     -1.119  0.1123E+01  0.2446E+01
     -0.991  0.1435E+01  0.2629E+01
     -0.864  0.6004E+00  0.2705E+01
     -0.736  0.2081E+00  0.2732E+01
     -0.608  0.3564E+00  0.2777E+01
     -0.481  0.1864E+00  0.2801E+01
     -0.353  0.1840E+00  0.2825E+01
     -0.226  0.2628E+00  0.2858E+01
     -0.098  0.1915E+00  0.2883E+01
      0.030  0.2250E+00  0.2911E+01
      0.157  0.1341E+00  0.2928E+01
      0.285  0.2356E+00  0.2959E+01
      0.413  0.2304E+00  0.2988E+01
      0.540  0.1082E+00  0.3002E+01
      0.668  0.1838E+00  0.3025E+01
      0.795  0.2521E+00  0.3057E+01
      0.923  0.1397E+00  0.3075E+01
      1.051  0.1324E+00  0.3092E+01
      1.178  0.2047E+00  0.3118E+01
      1.306  0.2172E+00  0.3146E+01
      1.433  0.3833E+00  0.3195E+01
      1.561  0.1266E+01  0.3356E+01
      1.689  0.1149E+01  0.3503E+01
      1.816  0.6220E+00  0.3582E+01
      1.944  0.4742E+00  0.3643E+01
      2.071  0.4503E+00  0.3700E+01
      2.199  0.4916E+00  0.3763E+01
      2.327  0.4525E+00  0.3821E+01
      2.454  0.4968E+00  0.3884E+01
      2.582  0.1078E+01  0.4022E+01
      2.709  0.1128E+01  0.4166E+01
      2.837  0.9067E+00  0.4281E+01
      2.965  0.1364E+01  0.4456E+01
      3.092  0.1909E+01  0.4699E+01
      3.220  0.1233E+01  0.4857E+01
      3.347  0.9828E+00  0.4982E+01
      3.475  0.1062E+01  0.5118E+01
      3.603  0.9092E+00  0.5234E+01
      3.730  0.6987E+00  0.5323E+01
      3.858  0.5711E+00  0.5396E+01
      3.986  0.7056E+00  0.5486E+01
      4.113  0.6337E+00  0.5566E+01
      4.241  0.4658E+00  0.5626E+01
      4.368  0.6534E+00  0.5709E+01
      4.496  0.6388E+00  0.5791E+01
      4.624  0.8846E+00  0.5904E+01
      4.751  0.1934E+01  0.6151E+01
      4.879  0.1630E+01  0.6359E+01
      5.006  0.1287E+01  0.6523E+01
      5.134  0.1188E+01  0.6674E+01
      5.262  0.1136E+01  0.6819E+01
      5.389  0.1154E+01  0.6966E+01
      5.517  0.1287E+01  0.7131E+01
      5.644  0.1338E+01  0.7301E+01
      5.772  0.2086E+01  0.7568E+01
      5.900  0.2663E+01  0.7907E+01
      6.027  0.7089E+00  0.7998E+01
      6.155  0.1810E-01  0.8000E+01
      6.282  0.8992E-01  0.8012E+01
      6.410  0.6993E+00  0.8101E+01
      6.538  0.1273E+01  0.8263E+01
      6.665  0.9632E+00  0.8386E+01
      6.793  0.6470E+00  0.8469E+01
      6.920  0.6144E+00  0.8547E+01
      7.048  0.7946E+00  0.8649E+01
      7.176  0.7972E+00  0.8750E+01
      7.303  0.1058E+01  0.8885E+01
      7.431  0.1252E+01  0.9045E+01
      7.559  0.9436E+00  0.9165E+01
      7.686  0.9010E+00  0.9280E+01
      7.814  0.7820E+00  0.9380E+01
      7.941  0.7744E+00  0.9479E+01
      8.069  0.8307E+00  0.9585E+01
      8.197  0.8752E+00  0.9697E+01
      8.324  0.2244E+01  0.9983E+01
      8.452  0.3274E+01  0.1040E+02
      8.579  0.2046E+01  0.1066E+02
      8.707  0.1858E+01  0.1090E+02
      8.835  0.1657E+01  0.1111E+02
      8.962  0.1449E+01  0.1130E+02
      9.090  0.2235E+01  0.1158E+02
      9.217  0.3121E+01  0.1198E+02
      9.345  0.2560E+01  0.1231E+02
      9.473  0.1208E+01  0.1246E+02
      9.600  0.9059E+00  0.1258E+02
      9.728  0.7048E+00  0.1267E+02
      9.855  0.6382E+00  0.1275E+02
      9.983  0.1051E+01  0.1288E+02
     10.111  0.9227E+00  0.1300E+02
     10.238  0.5099E+00  0.1306E+02
     10.366  0.6798E+00  0.1315E+02
     10.493  0.9066E+00  0.1327E+02
     10.621  0.4690E+00  0.1333E+02
     10.749  0.7404E+00  0.1342E+02
     10.876  0.7686E+00  0.1352E+02
     11.004  0.6908E+00  0.1361E+02
     11.132  0.3778E+00  0.1365E+02
     11.259  0.4629E+00  0.1371E+02
     11.387  0.9805E+00  0.1384E+02
     11.514  0.9939E+00  0.1397E+02
     11.642  0.5911E+00  0.1404E+02
     11.770  0.7643E+00  0.1414E+02
     11.897  0.1270E+01  0.1430E+02
     12.025  0.1154E+01  0.1445E+02
     12.152  0.7551E+00  0.1454E+02
     12.280  0.1110E+01  0.1469E+02
     12.408  0.9227E+00  0.1480E+02
     12.535  0.1004E+01  0.1493E+02
     12.663  0.7187E+00  0.1502E+02
     12.790  0.1392E+01  0.1520E+02
     12.918  0.2052E+01  0.1546E+02
     13.046  0.1533E+01  0.1566E+02
     13.173  0.1636E+01  0.1587E+02
     13.301  0.1853E+01  0.1610E+02
     13.428  0.2520E+01  0.1643E+02
     13.556  0.3456E+01  0.1687E+02
     13.684  0.2500E+01  0.1719E+02
     13.811  0.1772E+01  0.1741E+02
     13.939  0.1463E+01  0.1760E+02
     14.066  0.1118E+01  0.1774E+02
     14.194  0.1343E+01  0.1791E+02
     14.322  0.1302E+01  0.1808E+02
     14.449  0.1004E+01  0.1821E+02
     14.577  0.1208E+01  0.1836E+02
     14.705  0.1583E+01  0.1856E+02
     14.832  0.1483E+01  0.1875E+02
     14.960  0.9659E+00  0.1887E+02
     15.087  0.1008E+01  0.1900E+02
     15.215  0.1179E+01  0.1915E+02
     15.343  0.9189E+00  0.1927E+02
     15.470  0.7591E+00  0.1937E+02
     15.598  0.1197E+01  0.1952E+02
     15.725  0.1505E+01  0.1971E+02
     15.853  0.1263E+01  0.1987E+02
     15.981  0.5568E+00  0.1995E+02
     16.108  0.7792E+00  0.2004E+02
     16.236  0.8943E+00  0.2016E+02
     16.363  0.1319E+01  0.2033E+02
     16.491  0.1058E+01  0.2046E+02
     16.619  0.7105E+00  0.2055E+02
     16.746  0.1734E+01  0.2077E+02
     16.874  0.3516E+01  0.2122E+02
     17.001  0.3721E+01  0.2170E+02
     17.129  0.2075E+01  0.2196E+02
     17.257  0.1408E+01  0.2214E+02
     17.384  0.1635E+01  0.2235E+02
     17.512  0.1183E+01  0.2250E+02
     17.640  0.6750E+00  0.2259E+02
     17.767  0.9490E+00  0.2271E+02
     17.895  0.1661E+01  0.2292E+02
     18.022  0.1664E+01  0.2313E+02
     18.150  0.1132E+01  0.2328E+02
     18.278  0.1748E+01  0.2350E+02
     18.405  0.1527E+01  0.2370E+02
     18.533  0.1482E+01  0.2389E+02
     18.660  0.1500E+01  0.2408E+02
     18.788  0.1649E+01  0.2429E+02
     18.916  0.1741E+01  0.2451E+02
     19.043  0.1454E+01  0.2469E+02
     19.171  0.2194E+01  0.2497E+02
     19.298  0.1951E+01  0.2522E+02
     19.426  0.1298E+01  0.2539E+02
     19.554  0.1274E+01  0.2555E+02
     19.681  0.1330E+01  0.2572E+02
     19.809  0.8697E+00  0.2583E+02
     19.936  0.8093E+00  0.2594E+02
     20.064  0.9592E+00  0.2606E+02
     20.192  0.1071E+01  0.2619E+02
     20.319  0.7497E+00  0.2629E+02
     20.447  0.1129E+01  0.2643E+02
     20.574  0.1724E+01  0.2665E+02
     20.702  0.1756E+01  0.2688E+02
     20.830  0.1110E+01  0.2702E+02
     20.957  0.1049E+01  0.2715E+02
     21.085  0.1888E+01  0.2740E+02
     21.213  0.1204E+01  0.2755E+02
     21.340  0.9026E+00  0.2766E+02
     21.468  0.1261E+01  0.2782E+02
     21.595  0.1080E+01  0.2796E+02
     21.723  0.1273E+01  0.2813E+02
     21.851  0.1282E+01  0.2829E+02
     21.978  0.9911E+00  0.2842E+02
     22.106  0.1329E+01  0.2858E+02
     22.233  0.1038E+01  0.2872E+02
     22.361  0.1939E+01  0.2896E+02
     22.489  0.1298E+01  0.2913E+02
     22.616  0.1199E+01  0.2928E+02
     22.744  0.1623E+01  0.2949E+02
     22.871  0.1504E+01  0.2968E+02
     22.999  0.1547E+01  0.2988E+02
     23.127  0.1030E+01  0.3001E+02
     23.254  0.9980E+00  0.3014E+02
     23.382  0.1888E+01  0.3038E+02
     23.509  0.1227E+01  0.3054E+02
     23.637  0.7654E+00  0.3063E+02
     23.765  0.1419E+01  0.3081E+02
     23.892  0.1149E+01  0.3096E+02
     24.020  0.1581E+01  0.3116E+02
     24.147  0.1171E+01  0.3131E+02
     24.275  0.1169E+01  0.3146E+02
     24.403  0.2048E+01  0.3172E+02
     24.530  0.2371E+01  0.3203E+02
     24.658  0.2037E+01  0.3229E+02
     24.786  0.1202E+01  0.3244E+02
     24.913  0.9787E+00  0.3256E+02
     25.041  0.9230E+00  0.3268E+02
     25.168  0.1067E+01  0.3282E+02
     25.296  0.1824E+01  0.3305E+02
     25.424  0.1778E+01  0.3328E+02
     25.551  0.1463E+01  0.3346E+02
     25.679  0.1398E+01  0.3364E+02
     25.806  0.1027E+01  0.3377E+02
     25.934  0.1441E+01  0.3396E+02
     26.062  0.1106E+01  0.3410E+02
     26.189  0.6947E+00  0.3419E+02
     26.317  0.4554E+00  0.3425E+02
     26.444  0.5955E+00  0.3432E+02
     26.572  0.8442E+00  0.3443E+02
     26.700  0.8484E+00  0.3454E+02
     26.827  0.7334E+00  0.3463E+02
     26.955  0.6163E+00  0.3471E+02
     27.082  0.4778E+00  0.3477E+02
     27.210  0.4561E+00  0.3483E+02
     27.338  0.7254E+00  0.3492E+02
     27.465  0.6215E+00  0.3500E+02
     27.593  0.2230E+00  0.3503E+02
     27.720  0.2661E+00  0.3506E+02
     27.848  0.7540E+00  0.3516E+02
     27.976  0.6358E+00  0.3524E+02
     28.103  0.4588E+00  0.3530E+02
     28.231  0.3323E+00  0.3534E+02
     28.359  0.6271E+00  0.3542E+02
     28.486  0.6306E+00  0.3550E+02
     28.614  0.1113E+01  0.3564E+02
     28.741  0.1875E+01  0.3588E+02
     28.869  0.8605E+00  0.3599E+02
     28.997  0.5422E-01  0.3600E+02
     29.124  0.3792E-03  0.3600E+02
     29.252  0.1998E-06  0.3600E+02
     29.379  0.5228E-11  0.3600E+02
     29.507  0.0000E+00  0.3600E+02
     29.635  0.0000E+00  0.3600E+02
     29.762  0.0000E+00  0.3600E+02
     29.890  0.0000E+00  0.3600E+02
     30.017  0.0000E+00  0.3600E+02
     30.145  0.0000E+00  0.3600E+02
     30.273  0.0000E+00  0.3600E+02
     30.400  0.0000E+00  0.3600E+02
     30.528  0.0000E+00  0.3600E+02
     30.52783507     -7.75434115  301      6.11994092      1.00000000
     -7.754  0.0000E+00  0.0000E+00  0.0000E+00
     -7.627  0.0000E+00  0.0000E+00  0.0000E+00
     -7.499  0.0000E+00  0.0000E+00  0.0000E+00
     -7.372  0.0000E+00  0.0000E+00  0.0000E+00
     -7.244  0.0000E+00  0.0000E+00  0.0000E+00
     -7.116  0.0000E+00  0.0000E+00  0.0000E+00
     -6.989  0.0000E+00  0.0000E+00  0.0000E+00
     -6.861  0.0000E+00  0.0000E+00  0.0000E+00
     -6.733  0.0000E+00  0.0000E+00  0.0000E+00
     -6.606  0.6857E-17  0.1148E-29  0.0000E+00
     -6.478  0.4422E-11  0.7384E-15  0.0000E+00
     -6.351  0.1796E-06  0.4204E-10  0.0000E+00
     -6.223  0.3301E-03  0.1191E-06  0.0000E+00
     -6.095  0.3218E-01  0.2091E-04  0.0000E+00
     -5.968  0.2383E+00  0.3531E-03  0.0000E+00
     -5.840  0.2643E+00  0.1182E-02  0.0000E+00
     -5.713  0.1626E+00  0.1842E-02  0.0000E+00
     -5.585  0.1260E+00  0.2301E-02  0.0000E+00
     -5.457  0.1076E+00  0.2668E-02  0.0000E+00
     -5.330  0.9651E-01  0.3008E-02  0.0000E+00
     -5.202  0.8724E-01  0.3273E-02  0.0000E+00
     -5.075  0.8152E-01  0.3536E-02  0.0000E+00
     -4.947  0.7758E-01  0.3847E-02  0.0000E+00
     -4.819  0.7076E-01  0.3916E-02  0.0000E+00
     -4.692  0.7098E-01  0.4274E-02  0.0000E+00
     -4.564  0.6761E-01  0.4492E-02  0.0000E+00
     -4.437  0.6381E-01  0.4487E-02  0.0000E+00
     -4.309  0.6579E-01  0.4977E-02  0.0000E+00
     -4.181  0.6404E-01  0.5042E-02  0.0000E+00
     -4.054  0.6270E-01  0.5153E-02  0.0000E+00
     -3.926  0.7023E-01  0.5944E-02  0.0000E+00
     -3.799  0.7874E-01  0.6211E-02  0.0000E+00
     -3.671  0.9707E-01  0.7883E-02  0.0000E+00
     -3.543  0.5240E-01  0.4858E-02  0.0000E+00
     -3.416  0.2669E-01  0.3377E-02  0.0000E+00
     -3.288  0.4361E-01  0.5504E-02  0.0000E+00
     -3.160  0.2029E-01  0.2491E-02  0.0000E+00
     -3.033  0.4063E-01  0.5798E-02  0.0000E+00
     -2.905  0.3449E-01  0.4730E-02  0.0000E+00
     -2.778  0.2311E-01  0.3238E-02  0.0000E+00
     -2.650  0.6020E-01  0.9379E-02  0.0000E+00
     -2.522  0.1991E+00  0.3064E-01  0.0000E+00
     -2.395  0.3076E+00  0.4853E-01  0.0000E+00
     -2.267  0.2082E+00  0.3590E-01  0.0000E+00
     -2.140  0.9105E-01  0.1783E-01  0.0000E+00
     -2.012  0.6544E-01  0.1443E-01  0.0000E+00
     -1.884  0.1159E+00  0.2666E-01  0.0000E+00
     -1.757  0.7933E-01  0.1857E-01  0.0000E+00
     -1.629  0.4728E-01  0.1148E-01  0.0000E+00
     -1.502  0.6390E-01  0.1604E-01  0.0000E+00
     -1.374  0.8633E-01  0.2291E-01  0.0000E+00
     -1.246  0.1372E+00  0.3890E-01  0.0000E+00
     -1.119  0.2031E+00  0.6311E-01  0.0000E+00
     -0.991  0.2483E+00  0.8663E-01  0.0000E+00
     -0.864  0.9649E-01  0.3981E-01  0.0000E+00
     -0.736  0.2912E-01  0.1590E-01  0.0000E+00
     -0.608  0.5512E-01  0.2548E-01  0.0000E+00
     -0.481  0.2732E-01  0.1400E-01  0.0000E+00
     -0.353  0.2653E-01  0.1445E-01  0.0000E+00
     -0.226  0.3808E-01  0.2063E-01  0.0000E+00
     -0.098  0.3174E-01  0.1362E-01  0.0000E+00
      0.030  0.3111E-01  0.1882E-01  0.0000E+00
      0.157  0.1734E-01  0.1179E-01  0.0000E+00
      0.285  0.3878E-01  0.1779E-01  0.0000E+00
      0.413  0.3212E-01  0.1983E-01  0.0000E+00
      0.540  0.1263E-01  0.1039E-01  0.0000E+00
      0.668  0.2866E-01  0.1521E-01  0.0000E+00
      0.795  0.3729E-01  0.2169E-01  0.0000E+00
      0.923  0.1636E-01  0.1382E-01  0.0000E+00
      1.051  0.1874E-01  0.1220E-01  0.0000E+00
      1.178  0.3081E-01  0.1819E-01  0.0000E+00
      1.306  0.2700E-01  0.2164E-01  0.0000E+00
      1.433  0.1644E-01  0.5142E-01  0.0000E+00
      1.561  0.2149E-01  0.1836E+00  0.0000E+00
      1.689  0.3246E-01  0.1621E+00  0.0000E+00
      1.816  0.2313E-01  0.8649E-01  0.0000E+00
      1.944  0.1965E-01  0.6615E-01  0.0000E+00
      2.071  0.1944E-01  0.6324E-01  0.0000E+00
      2.199  0.3116E-01  0.6577E-01  0.0000E+00
      2.327  0.1945E-01  0.6523E-01  0.0000E+00
      2.454  0.1640E-01  0.7556E-01  0.0000E+00
      2.582  0.2248E-01  0.1718E+00  0.0000E+00
      2.709  0.2642E-01  0.1808E+00  0.0000E+00
      2.837  0.1651E-01  0.1529E+00  0.0000E+00
      2.965  0.1676E-01  0.2440E+00  0.0000E+00
      3.092  0.2368E-01  0.3513E+00  0.0000E+00
      3.220  0.1810E-01  0.2234E+00  0.0000E+00
      3.347  0.1444E-01  0.1779E+00  0.0000E+00
      3.475  0.1767E-01  0.1957E+00  0.0000E+00
      3.603  0.2079E-01  0.1632E+00  0.0000E+00
      3.730  0.1194E-01  0.1270E+00  0.0000E+00
      3.858  0.1196E-01  0.1045E+00  0.0000E+00
      3.986  0.2208E-01  0.1242E+00  0.0000E+00
      4.113  0.1384E-01  0.1154E+00  0.0000E+00
      4.241  0.7677E-02  0.8707E-01  0.0000E+00
      4.368  0.1458E-01  0.1199E+00  0.0000E+00
      4.496  0.1939E-01  0.1156E+00  0.0000E+00
      4.624  0.8108E-02  0.1779E+00  0.0000E+00
      4.751  0.7560E-02  0.4018E+00  0.0000E+00
      4.879  0.1588E-01  0.3321E+00  0.0000E+00
      5.006  0.1022E-01  0.2617E+00  0.0000E+00
      5.134  0.7437E-02  0.2417E+00  0.0000E+00
      5.262  0.9424E-02  0.2311E+00  0.0000E+00
      5.389  0.7726E-02  0.2361E+00  0.0000E+00
      5.517  0.7360E-02  0.2651E+00  0.0000E+00
      5.644  0.5343E-02  0.2792E+00  0.0000E+00
      5.772  0.3735E-02  0.4407E+00  0.0000E+00
      5.900  0.1873E-02  0.5663E+00  0.0000E+00
      6.027  0.9946E-04  0.1512E+00  0.0000E+00
      6.155  0.5653E-04  0.3682E-02  0.0000E+00
      6.282  0.4761E-02  0.3900E-02  0.0000E+00
      6.410  0.3675E-01  0.2982E-01  0.0000E+00
      6.538  0.6576E-01  0.5192E-01  0.0000E+00
      6.665  0.4852E-01  0.4100E-01  0.0000E+00
      6.793  0.3136E-01  0.3060E-01  0.0000E+00
      6.920  0.2917E-01  0.3037E-01  0.0000E+00
      7.048  0.3825E-01  0.3942E-01  0.0000E+00
      7.176  0.4276E-01  0.3937E-01  0.0000E+00
      7.303  0.1071E+00  0.4481E-01  0.0000E+00
      7.431  0.1415E+00  0.5030E-01  0.0000E+00
      7.559  0.9260E-01  0.4725E-01  0.0000E+00
      7.686  0.7587E-01  0.4946E-01  0.0000E+00
      7.814  0.6292E-01  0.4818E-01  0.0000E+00
      7.941  0.5714E-01  0.5337E-01  0.0000E+00
      8.069  0.5549E-01  0.5997E-01  0.0000E+00
      8.197  0.4985E-01  0.7919E-01  0.0000E+00
      8.324  0.5058E-01  0.2828E+00  0.0000E+00
      8.452  0.4382E-01  0.4446E+00  0.0000E+00
      8.579  0.4103E-01  0.2665E+00  0.0000E+00
      8.707  0.6916E-01  0.2232E+00  0.0000E+00
      8.835  0.7737E-01  0.1977E+00  0.0000E+00
      8.962  0.8229E-01  0.1662E+00  0.0000E+00
      9.090  0.2349E+00  0.1862E+00  0.0000E+00
      9.217  0.1501E+00  0.3181E+00  0.0000E+00
      9.345  0.9734E-01  0.2856E+00  0.0000E+00
      9.473  0.8571E-01  0.1156E+00  0.0000E+00
      9.600  0.6449E-01  0.9627E-01  0.0000E+00
      9.728  0.6635E-01  0.7146E-01  0.0000E+00
      9.855  0.4875E-01  0.6057E-01  0.0000E+00
      9.983  0.8388E-01  0.1094E+00  0.0000E+00
     10.111  0.8213E-01  0.9974E-01  0.0000E+00
     10.238  0.4646E-01  0.4821E-01  0.0000E+00
     10.366  0.2645E-01  0.8195E-01  0.0000E+00
     10.493  0.4968E-01  0.1062E+00  0.0000E+00
     10.621  0.3221E-01  0.5130E-01  0.0000E+00
     10.749  0.1780E-01  0.8022E-01  0.0000E+00
     10.876  0.2384E-01  0.9261E-01  0.0000E+00
     11.004  0.3848E-01  0.8068E-01  0.0000E+00
     11.132  0.2212E-01  0.4521E-01  0.0000E+00
     11.259  0.2337E-01  0.5893E-01  0.0000E+00
     11.387  0.4418E-01  0.1171E+00  0.0000E+00
     11.514  0.5659E-01  0.1068E+00  0.0000E+00
     11.642  0.3017E-01  0.6705E-01  0.0000E+00
     11.770  0.2043E-01  0.9274E-01  0.0000E+00
     11.897  0.3036E-01  0.1089E+00  0.0000E+00
     12.025  0.3394E-01  0.7681E-01  0.0000E+00
     12.152  0.1577E-01  0.4781E-01  0.0000E+00
     12.280  0.3149E-01  0.9451E-01  0.0000E+00
     12.408  0.3259E-01  0.7401E-01  0.0000E+00
     12.535  0.4315E-01  0.8228E-01  0.0000E+00
     12.663  0.1938E-01  0.6253E-01  0.0000E+00
     12.790  0.2189E-01  0.1129E+00  0.0000E+00
     12.918  0.3916E-01  0.1111E+00  0.0000E+00
     13.046  0.3062E-01  0.7194E-01  0.0000E+00
     13.173  0.1841E-01  0.1132E+00  0.0000E+00
     13.301  0.2058E-01  0.1238E+00  0.0000E+00
     13.428  0.2645E-01  0.8059E-01  0.0000E+00
     13.556  0.5429E-01  0.1399E+00  0.0000E+00
     13.684  0.9230E-01  0.1369E+00  0.0000E+00
     13.811  0.7685E-01  0.1032E+00  0.0000E+00
     13.939  0.6080E-01  0.9446E-01  0.0000E+00
     14.066  0.5637E-01  0.8971E-01  0.0000E+00
     14.194  0.4281E-01  0.1051E+00  0.0000E+00
     14.322  0.2143E-01  0.9102E-01  0.0000E+00
     14.449  0.3098E-01  0.7078E-01  0.0000E+00
     14.577  0.5798E-01  0.8445E-01  0.0000E+00
     14.705  0.5455E-01  0.1174E+00  0.0000E+00
     14.832  0.5487E-01  0.1112E+00  0.0000E+00
     14.960  0.3800E-01  0.8206E-01  0.0000E+00
     15.087  0.1888E-01  0.1084E+00  0.0000E+00
     15.215  0.3055E-01  0.1350E+00  0.0000E+00
     15.343  0.3125E-01  0.9776E-01  0.0000E+00
     15.470  0.9779E-02  0.9050E-01  0.0000E+00
     15.598  0.2058E-01  0.1509E+00  0.0000E+00
     15.725  0.4126E-01  0.2101E+00  0.0000E+00
     15.853  0.1819E-01  0.2030E+00  0.0000E+00
     15.981  0.6006E-02  0.5594E-01  0.0000E+00
     16.108  0.1623E-01  0.4781E-01  0.0000E+00
     16.236  0.3064E-01  0.7324E-01  0.0000E+00
     16.363  0.3281E-01  0.8642E-01  0.0000E+00
     16.491  0.2111E-01  0.5714E-01  0.0000E+00
     16.619  0.1479E-01  0.4506E-01  0.0000E+00
     16.746  0.2507E-01  0.8476E-01  0.0000E+00
     16.874  0.3566E-01  0.1733E+00  0.0000E+00
     17.001  0.1830E-01  0.2077E+00  0.0000E+00
     17.129  0.1185E-01  0.1179E+00  0.0000E+00
     17.257  0.2357E-01  0.7859E-01  0.0000E+00
     17.384  0.2166E-01  0.9417E-01  0.0000E+00
     17.512  0.4972E-02  0.5544E-01  0.0000E+00
     17.640  0.3747E-02  0.2224E-01  0.0000E+00
     17.767  0.1350E-01  0.4881E-01  0.0000E+00
     17.895  0.2087E-01  0.1008E+00  0.0000E+00
     18.022  0.2487E-01  0.1085E+00  0.0000E+00
     18.150  0.1410E-01  0.6206E-01  0.0000E+00
     18.278  0.1695E-01  0.7558E-01  0.0000E+00
     18.405  0.1557E-01  0.9421E-01  0.0000E+00
     18.533  0.1477E-01  0.9606E-01  0.0000E+00
     18.660  0.4539E-01  0.1727E+00  0.0000E+00
     18.788  0.4805E-01  0.1856E+00  0.0000E+00
     18.916  0.2984E-01  0.1572E+00  0.0000E+00
     19.043  0.2511E-01  0.1340E+00  0.0000E+00
     19.171  0.3172E-01  0.1526E+00  0.0000E+00
     19.298  0.2703E-01  0.1604E+00  0.0000E+00
     19.426  0.2224E-01  0.1636E+00  0.0000E+00
     19.554  0.1916E-01  0.1332E+00  0.0000E+00
     19.681  0.1411E-01  0.1213E+00  0.0000E+00
     19.809  0.9809E-02  0.8765E-01  0.0000E+00
     19.936  0.7703E-02  0.6714E-01  0.0000E+00
     20.064  0.6959E-02  0.7375E-01  0.0000E+00
     20.192  0.6676E-02  0.8625E-01  0.0000E+00
     20.319  0.5258E-02  0.9714E-01  0.0000E+00
     20.447  0.5422E-02  0.1169E+00  0.0000E+00
     20.574  0.7854E-02  0.8812E-01  0.0000E+00
     20.702  0.1022E-01  0.7631E-01  0.0000E+00
     20.830  0.7583E-02  0.5663E-01  0.0000E+00
     20.957  0.1249E-01  0.5690E-01  0.0000E+00
     21.085  0.3123E-01  0.9317E-01  0.0000E+00
     21.213  0.1979E-01  0.7510E-01  0.0000E+00
     21.340  0.1771E-01  0.5132E-01  0.0000E+00
     21.468  0.1708E-01  0.7447E-01  0.0000E+00
     21.595  0.9468E-02  0.6367E-01  0.0000E+00
     21.723  0.1249E-01  0.6350E-01  0.0000E+00
     21.851  0.1994E-01  0.5213E-01  0.0000E+00
     21.978  0.1758E-01  0.4257E-01  0.0000E+00
     22.106  0.1203E-01  0.6245E-01  0.0000E+00
     22.233  0.1468E-01  0.4872E-01  0.0000E+00
     22.361  0.3348E-01  0.1067E+00  0.0000E+00
     22.489  0.2554E-01  0.5555E-01  0.0000E+00
     22.616  0.2239E-01  0.5644E-01  0.0000E+00
     22.744  0.2379E-01  0.1108E+00  0.0000E+00
     22.871  0.1233E-01  0.9212E-01  0.0000E+00
     22.999  0.1547E-01  0.8037E-01  0.0000E+00
     23.127  0.1695E-01  0.6969E-01  0.0000E+00
     23.254  0.8320E-02  0.6952E-01  0.0000E+00
     23.382  0.2141E-01  0.1188E+00  0.0000E+00
     23.509  0.2066E-01  0.6663E-01  0.0000E+00
     23.637  0.1221E-01  0.3848E-01  0.0000E+00
     23.765  0.2000E-01  0.8455E-01  0.0000E+00
     23.892  0.1288E-01  0.5930E-01  0.0000E+00
     24.020  0.1443E-01  0.8664E-01  0.0000E+00
     24.147  0.1151E-01  0.7321E-01  0.0000E+00
     24.275  0.1403E-01  0.7120E-01  0.0000E+00
     24.403  0.3176E-01  0.9092E-01  0.0000E+00
     24.530  0.4228E-01  0.7522E-01  0.0000E+00
     24.658  0.2854E-01  0.9395E-01  0.0000E+00
     24.786  0.1607E-01  0.6224E-01  0.0000E+00
     24.913  0.2428E-01  0.4362E-01  0.0000E+00
     25.041  0.1709E-01  0.3982E-01  0.0000E+00
     25.168  0.9966E-02  0.5211E-01  0.0000E+00
     25.296  0.1563E-01  0.1034E+00  0.0000E+00
     25.424  0.1447E-01  0.9765E-01  0.0000E+00
     25.551  0.2158E-01  0.7763E-01  0.0000E+00
     25.679  0.2389E-01  0.7551E-01  0.0000E+00
     25.806  0.1777E-01  0.4466E-01  0.0000E+00
     25.934  0.1730E-01  0.5840E-01  0.0000E+00
     26.062  0.8740E-02  0.5293E-01  0.0000E+00
     26.189  0.8114E-02  0.3787E-01  0.0000E+00
     26.317  0.7457E-02  0.2278E-01  0.0000E+00
     26.444  0.9310E-02  0.3780E-01  0.0000E+00
     26.572  0.3393E-02  0.3634E-01  0.0000E+00
     26.700  0.3419E-02  0.3753E-01  0.0000E+00
     26.827  0.5656E-02  0.3733E-01  0.0000E+00
     26.955  0.4168E-02  0.3334E-01  0.0000E+00
     27.082  0.4239E-02  0.2636E-01  0.0000E+00
     27.210  0.5991E-03  0.1214E-01  0.0000E+00
     27.338  0.2834E-03  0.1747E-01  0.0000E+00
     27.465  0.6307E-03  0.3519E-01  0.0000E+00
     27.593  0.4716E-03  0.1341E-01  0.0000E+00
     27.720  0.1526E-02  0.7810E-02  0.0000E+00
     27.848  0.2515E-02  0.3221E-01  0.0000E+00
     27.976  0.1510E-02  0.2812E-01  0.0000E+00
     28.103  0.8415E-04  0.1259E-01  0.0000E+00
     28.231  0.1308E-03  0.1012E-01  0.0000E+00
     28.359  0.8800E-03  0.2159E-01  0.0000E+00
     28.486  0.6177E-03  0.1519E-01  0.0000E+00
     28.614  0.8815E-03  0.2402E-01  0.0000E+00
     28.741  0.7428E-03  0.2597E-01  0.0000E+00
     28.869  0.7491E-04  0.8897E-02  0.0000E+00
     28.997  0.5190E-05  0.5374E-03  0.0000E+00
     29.124  0.6148E-07  0.3722E-05  0.0000E+00
     29.252  0.3789E-10  0.1952E-08  0.0000E+00
     29.379  0.1023E-14  0.5104E-13  0.0000E+00
     29.507  0.0000E+00  0.0000E+00  0.0000E+00
     29.635  0.0000E+00  0.0000E+00  0.0000E+00
     29.762  0.0000E+00  0.0000E+00  0.0000E+00
     29.890  0.0000E+00  0.0000E+00  0.0000E+00
     30.017  0.0000E+00  0.0000E+00  0.0000E+00
     30.145  0.0000E+00  0.0000E+00  0.0000E+00
     30.273  0.0000E+00  0.0000E+00  0.0000E+00
     30.400  0.0000E+00  0.0000E+00  0.0000E+00
     30.528  0.0000E+00  0.0000E+00  0.0000E+00
     30.52783507     -7.75434115  301      6.11994092      1.00000000
     -7.754  0.0000E+00  0.0000E+00  0.0000E+00
     -7.627  0.0000E+00  0.0000E+00  0.0000E+00
     -7.499  0.0000E+00  0.0000E+00  0.0000E+00
     -7.372  0.0000E+00  0.0000E+00  0.0000E+00
     -7.244  0.0000E+00  0.0000E+00  0.0000E+00
     -7.116  0.0000E+00  0.0000E+00  0.0000E+00
     -6.989  0.0000E+00  0.0000E+00  0.0000E+00
     -6.861  0.0000E+00  0.0000E+00  0.0000E+00
     -6.733  0.0000E+00  0.0000E+00  0.0000E+00
     -6.606  0.6857E-17  0.1110E-29  0.0000E+00
     -6.478  0.4422E-11  0.7384E-15  0.0000E+00
     -6.351  0.1796E-06  0.4204E-10  0.0000E+00
     -6.223  0.3301E-03  0.1191E-06  0.0000E+00
     -6.095  0.3218E-01  0.2091E-04  0.0000E+00
     -5.968  0.2383E+00  0.3531E-03  0.0000E+00
     -5.840  0.2643E+00  0.1182E-02  0.0000E+00
     -5.713  0.1626E+00  0.1842E-02  0.0000E+00
     -5.585  0.1260E+00  0.2301E-02  0.0000E+00
     -5.457  0.1076E+00  0.2668E-02  0.0000E+00
     -5.330  0.9651E-01  0.3008E-02  0.0000E+00
     -5.202  0.8724E-01  0.3273E-02  0.0000E+00
     -5.075  0.8152E-01  0.3536E-02  0.0000E+00
     -4.947  0.7758E-01  0.3847E-02  0.0000E+00
     -4.819  0.7076E-01  0.3916E-02  0.0000E+00
     -4.692  0.7098E-01  0.4274E-02  0.0000E+00
     -4.564  0.6761E-01  0.4492E-02  0.0000E+00
     -4.437  0.6381E-01  0.4487E-02  0.0000E+00
     -4.309  0.6579E-01  0.4977E-02  0.0000E+00
     -4.181  0.6404E-01  0.5042E-02  0.0000E+00
     -4.054  0.6270E-01  0.5153E-02  0.0000E+00
     -3.926  0.7023E-01  0.5944E-02  0.0000E+00
     -3.799  0.7874E-01  0.6211E-02  0.0000E+00
     -3.671  0.9707E-01  0.7883E-02  0.0000E+00
     -3.543  0.5240E-01  0.4858E-02  0.0000E+00
     -3.416  0.2669E-01  0.3377E-02  0.0000E+00
     -3.288  0.4361E-01  0.5504E-02  0.0000E+00
     -3.160  0.2029E-01  0.2491E-02  0.0000E+00
     -3.033  0.4063E-01  0.5798E-02  0.0000E+00
     -2.905  0.3449E-01  0.4730E-02  0.0000E+00
     -2.778  0.2311E-01  0.3238E-02  0.0000E+00
     -2.650  0.6020E-01  0.9379E-02  0.0000E+00
     -2.522  0.1991E+00  0.3064E-01  0.0000E+00
     -2.395  0.3076E+00  0.4853E-01  0.0000E+00
     -2.267  0.2082E+00  0.3590E-01  0.0000E+00
     -2.140  0.9105E-01  0.1783E-01  0.0000E+00
     -2.012  0.6544E-01  0.1443E-01  0.0000E+00
     -1.884  0.1159E+00  0.2666E-01  0.0000E+00
     -1.757  0.7933E-01  0.1857E-01  0.0000E+00
     -1.629  0.4728E-01  0.1148E-01  0.0000E+00
     -1.502  0.6390E-01  0.1604E-01  0.0000E+00
     -1.374  0.8633E-01  0.2291E-01  0.0000E+00
     -1.246  0.1372E+00  0.3890E-01  0.0000E+00
     -1.119  0.2031E+00  0.6311E-01  0.0000E+00
     -0.991  0.2483E+00  0.8663E-01  0.0000E+00
     -0.864  0.9649E-01  0.3981E-01  0.0000E+00
     -0.736  0.2912E-01  0.1590E-01  0.0000E+00
     -0.608  0.5512E-01  0.2548E-01  0.0000E+00
     -0.481  0.2732E-01  0.1400E-01  0.0000E+00
     -0.353  0.2653E-01  0.1445E-01  0.0000E+00
     -0.226  0.3808E-01  0.2063E-01  0.0000E+00
     -0.098  0.3174E-01  0.1362E-01  0.0000E+00
      0.030  0.3111E-01  0.1882E-01  0.0000E+00
      0.157  0.1734E-01  0.1179E-01  0.0000E+00
      0.285  0.3878E-01  0.1779E-01  0.0000E+00
      0.413  0.3212E-01  0.1983E-01  0.0000E+00
      0.540  0.1263E-01  0.1039E-01  0.0000E+00
      0.668  0.2866E-01  0.1521E-01  0.0000E+00
      0.795  0.3729E-01  0.2169E-01  0.0000E+00
      0.923  0.1636E-01  0.1382E-01  0.0000E+00
      1.051  0.1874E-01  0.1220E-01  0.0000E+00
      1.178  0.3081E-01  0.1819E-01  0.0000E+00
      1.306  0.2700E-01  0.2164E-01  0.0000E+00
      1.433  0.1644E-01  0.5142E-01  0.0000E+00
      1.561  0.2149E-01  0.1836E+00  0.0000E+00
      1.689  0.3246E-01  0.1621E+00  0.0000E+00
      1.816  0.2313E-01  0.8649E-01  0.0000E+00
      1.944  0.1965E-01  0.6615E-01  0.0000E+00
      2.071  0.1944E-01  0.6324E-01  0.0000E+00
      2.199  0.3116E-01  0.6577E-01  0.0000E+00
      2.327  0.1945E-01  0.6523E-01  0.0000E+00
      2.454  0.1640E-01  0.7556E-01  0.0000E+00
      2.582  0.2248E-01  0.1718E+00  0.0000E+00
      2.709  0.2642E-01  0.1808E+00  0.0000E+00
      2.837  0.1651E-01  0.1529E+00  0.0000E+00
      2.965  0.1676E-01  0.2440E+00  0.0000E+00
      3.092  0.2368E-01  0.3513E+00  0.0000E+00
      3.220  0.1810E-01  0.2234E+00  0.0000E+00
      3.347  0.1444E-01  0.1779E+00  0.0000E+00
      3.475  0.1767E-01  0.1957E+00  0.0000E+00
      3.603  0.2079E-01  0.1632E+00  0.0000E+00