PROCAR new format
# of k-points:   80         # of bands:   18         # of ions:    2

 k-point     1 :    0.50000000 0.50000000 0.50000000     weight = 0.01250000

band     1 # energy   -3.71161759 # occ.  2.00000000
 
ion      s      p      d    tot
    1  0.223  0.013  0.000  0.236
    2  0.223  0.013  0.000  0.236
tot    0.445  0.027  0.000  0.472
 
band     2 # energy   -1.07943303 # occ.  2.00000000
 
ion      s      p      d    tot
    1  0.098  0.092  0.000  0.190
    2  0.098  0.092  0.000  0.190
tot    0.195  0.185  0.000  0.380
 
band     3 # energy    4.65676445 # occ.  2.00000000
 
ion      s      p      d    tot
    1  0.000  0.215  0.000  0.215
    2  0.000  0.215  0.000  0.215
tot    0.000  0.430  0.000  0.430
 
band     4 # energy    4.65676445 # occ.  2.00000000
 
ion      s      p      d    tot
    1  0.000  0.215  0.000  0.215
    2  0.000  0.215  0.000  0.215
tot    0.000  0.430  0.000  0.430
 
band     5 # energy    7.27838883 # occ.  0.00000000
 
ion      s      p      d    tot
    1  0.186  0.019  0.000  0.206
    2  0.186  0.019  0.000  0.206
tot    0.373  0.039  0.000  0.412
 
band     6 # energy    9.10217998 # occ.  0.00000000
 
ion      s      p      d    tot
    1  0.000  0.093  0.000  0.093
    2  0.000  0.093  0.000  0.093
tot    0.000  0.187  0.000  0.187
 
band     7 # energy    9.10217999 # occ.  0.00000000
 
ion      s      p      d    tot
    1  0.000  0.093  0.000  0.093
    2  0.000  0.093  0.000  0.093
tot    0.000  0.187  0.000  0.187
 
band     8 # energy   13.41923595 # occ.  0.00000000
 
ion      s      p      d    tot
    1  0.006  0.052  0.000  0.058
    2  0.006  0.052  0.000  0.058
tot    0.012  0.104  0.000  0.116
 
band     9 # energy   16.31811478 # occ.  0.00000000
 
ion      s      p      d    tot
    1  0.000  0.000  0.000  0.000
    2  0.000  0.000  0.000  0.000
tot    0.000  0.001  0.000  0.001
 
band    10 # energy   16.31811485 # occ.  0.00000000
 
ion      s      p      d    tot
    1  0.000  0.000  0.000  0.000
    2  0.000  0.000  0.000  0.000
tot    0.000  0.001  0.000  0.001
 
band    11 # energy   17.00755467 # occ.  0.00000000
 
ion      s      p      d    tot
    1  0.000  0.116  0.000  0.116
    2  0.000  0.116  0.000  0.116
tot    0.000  0.232  0.000  0.232
 
band    12 # energy   17.00755469 # occ.  0.00000000
 
ion      s      p      d    tot
    1  0.000  0.116  0.000  0.116
    2  0.000  0.116  0.000  0.116
tot    0.000  0.232  0.000  0.232
 
band    13 # energy   17.02580285 # occ.  0.00000000
 
ion      s      p      d    tot
    1  0.037  0.152  0.000  0.190
    2  0.037  0.152  0.000  0.190
tot    0.075  0.304  0.000  0.379
 
band    14 # energy   18.58145368 # occ.  0.00000000
 
ion      s      p      d    tot
    1  0.087  0.210  0.000  0.297
    2  0.087  0.210  0.000  0.297
tot    0.175  0.419  0.000  0.594
 
band    15 # energy   25.02179610 # occ.  0.00000000
 
ion      s      p      d    tot
    1  0.051  0.013  0.000  0.064
    2  0.051  0.013  0.000  0.064
tot    0.102  0.025  0.000  0.127
 
band    16 # energy   25.54747071 # occ.  0.00000000
 
ion      s      p      d    tot
    1  0.014  0.069  0.000  0.083
    2  0.014  0.069  0.000  0.083
tot    0.029  0.138  0.000  0.166
 
band    17 # energy   27.22693672 # occ.  0.00000000
 
ion      s      p      d    tot
    1  0.000  0.003  0.000  0.003
    2  0.000  0.003  0.000  0.003
tot    0.000  0.006  0.000  0.006
 
band    18 # energy   27.22853994 # occ.  0.00000000
 
ion      s      p      d    tot
    1  0.000  0.004  0.000  0.004
    2  0.000  0.003  0.000  0.003
tot    0.000  0.007  0.000  0.007
 

 k-point     2 :    0.47368421 0.47368421 0.47368421     weight = 0.01250000

band     1 # energy   -3.75030562 # occ.  2.00000000
 
ion      s      p      d    tot
    1  0.221  0.014  0.000  0.235
    2  0.221  0.014  0.000  0.235
tot    0.443  0.027  0.000  0.470
 
band     2 # energy   -1.02379921 # occ.  2.00000000
 
ion      s      p      d    tot
    1  0.099  0.092  0.000  0.191
    2  0.099  0.092  0.000  0.191
tot    0.197  0.184  0.000  0.382
 
band     3 # energy    4.66170117 # occ.  2.00000000
 
ion      s      p      d    tot
    1  0.000  0.215  0.000  0.215
    2  0.000  0.215  0.000  0.215
tot    0.000  0.430  0.000  0.430
 
band     4 # energy    4.66170117 # occ.  2.00000000
 
ion      s      p      d    tot
    1  0.000  0.215  0.000  0.215
    2  0.000  0.215  0.000  0.215
tot    0.000  0.430  0.000  0.430
 
band     5 # energy    7.28408037 # occ.  0.00000000
 
ion      s      p      d    tot
    1  0.186  0.020  0.000  0.206
    2  0.186  0.020  0.000  0.206
tot    0.372  0.040  0.000  0.412
 
band     6 # energy    9.10793525 # occ.  0.00000000
 
ion      s      p      d    tot
    1  0.000  0.094  0.000  0.094
    2  0.000  0.094  0.000  0.094
tot    0.000  0.188  0.000  0.188
 
band     7 # energy    9.10793526 # occ.  0.00000000
 
ion      s      p      d    tot
    1  0.000  0.094  0.000  0.094
    2  0.000  0.094  0.000  0.094
tot    0.000  0.188  0.000  0.188
 
band     8 # energy   13.42807997 # occ.  0.00000000
 
ion      s      p      d    tot
    1  0.006  0.053  0.000  0.059
    2  0.006  0.053  0.000  0.059
tot    0.012  0.106  0.000  0.118
 
band     9 # energy   16.02591533 # occ.  0.00000000
 
ion      s      p      d    tot
    1  0.000  0.027  0.000  0.027
    2  0.000  0.027  0.000  0.027
tot    0.000  0.054  0.000  0.054
 
band    10 # energy   16.02591538 # occ.  0.00000000
 
ion      s      p      d    tot
    1  0.000  0.027  0.000  0.027
    2  0.000  0.027  0.000  0.027
tot    0.000  0.054  0.000  0.054
 
band    11 # energy   16.87343249 # occ.  0.00000000
 
ion      s      p      d    tot
    1  0.047  0.151  0.000  0.198
    2  0.047  0.151  0.000  0.198
tot    0.094  0.302  0.000  0.396
 
band    12 # energy   17.32059636 # occ.  0.00000000
 
ion      s      p      d    tot
    1  0.000  0.089  0.000  0.089
    2  0.000  0.089  0.000  0.089
tot    0.000  0.178  0.000  0.178
 
band    13 # energy   17.32059637 # occ.  0.00000000
 
ion      s      p      d    tot
    1  0.000  0.089  0.000  0.089
    2  0.000  0.089  0.000  0.089
tot    0.000  0.178  0.000  0.178
 
band    14 # energy   18.72605606 # occ.  0.00000000
 
ion      s      p      d    tot
    1  0.077  0.212  0.000  0.289
    2  0.077  0.212  0.000  0.289
tot    0.154  0.423  0.000  0.577
 
band    15 # energy   24.44440449 # occ.  0.00000000
 
ion      s      p      d    tot
    1  0.044  0.025  0.000  0.068
    2  0.044  0.025  0.000  0.068
tot    0.087  0.049  0.000  0.137
 
band    16 # energy   26.15405865 # occ.  0.00000000
 
ion      s      p      d    tot
    1  0.022  0.055  0.000  0.077
    2  0.022  0.055  0.000  0.077
tot    0.045  0.110  0.000  0.155
 
band    17 # energy   26.64134167 # occ.  0.00000000
 
ion      s      p      d    tot
    1  0.000  0.020  0.000  0.020
    2  0.000  0.020  0.000  0.020
tot    0.000  0.041  0.000  0.041
 
band    18 # energy   26.64134311 # occ.  0.00000000
 
ion      s      p      d    tot
    1  0.000  0.020  0.000  0.020
    2  0.000  0.020  0.000  0.020
tot    0.000  0.041  0.000  0.041
 

 k-point     3 :    0.44736842 0.44736842 0.44736842     weight = 0.01250000

band     1 # energy   -3.85735647 # occ.  2.00000000
 
ion      s      p      d    tot
    1  0.218  0.014  0.000  0.232
    2  0.218  0.014  0.000  0.232
tot    0.436  0.028  0.000  0.465
 
band     2 # energy   -0.86589267 # occ.  2.00000000
 
ion      s      p      d    tot
    1  0.101  0.092  0.000  0.194
    2  0.101  0.092  0.000  0.194
tot    0.203  0.185  0.000  0.387
 
band     3 # energy    4.67663216 # occ.  2.00000000
 
ion      s      p      d    tot
    1  0.000  0.215  0.000  0.215
    2  0.000  0.215  0.000  0.215
tot    0.000  0.430  0.000  0.430
 
band     4 # energy    4.67663216 # occ.  2.00000000
 
ion      s      p      d    tot
    1  0.000  0.215  0.000  0.215
    2  0.000  0.215  0.000  0.215
tot    0.000  0.430  0.000  0.430
 
band     5 # energy    7.30104647 # occ.  0.00000000
 
ion      s      p      d    tot
    1  0.185  0.021  0.000  0.206
    2  0.185  0.021  0.000  0.206
tot    0.370  0.041  0.000  0.412
 
band     6 # energy    9.12569473 # occ.  0.00000000
 
ion      s      p      d    tot
    1  0.000  0.095  0.000  0.095
    2  0.000  0.095  0.000  0.095
tot    0.000  0.191  0.000  0.191
 
band     7 # energy    9.12569475 # occ.  0.00000000
 
ion      s      p      d    tot
    1  0.000  0.095  0.000  0.095
    2  0.000  0.095  0.000  0.095
tot    0.000  0.191  0.000  0.191
 
band     8 # energy   13.45375223 # occ.  0.00000000
 
ion      s      p      d    tot
    1  0.005  0.056  0.000  0.061
    2  0.005  0.056  0.000  0.061
tot    0.011  0.112  0.000  0.122
 
band     9 # energy   15.56032535 # occ.  0.00000000
 
ion      s      p      d    tot
    1  0.000  0.039  0.000  0.039
    2  0.000  0.039  0.000  0.039
tot    0.000  0.078  0.000  0.078
 
band    10 # energy   15.56032539 # occ.  0.00000000
 
ion      s      p      d    tot
    1  0.000  0.039  0.000  0.039
    2  0.000  0.039  0.000  0.039
tot    0.000  0.078  0.000  0.078
 
band    11 # energy   16.52312274 # occ.  0.00000000
 
ion      s      p      d    tot
    1  0.064  0.145  0.000  0.209
    2  0.064  0.145  0.000  0.209
tot    0.128  0.291  0.000  0.418
 
band    12 # energy   17.85103017 # occ.  0.00000000
 
ion      s      p      d    tot
    1  0.000  0.075  0.000  0.075
    2  0.000  0.075  0.000  0.075
tot    0.000  0.150  0.000  0.150
 
band    13 # energy   17.85103018 # occ.  0.00000000
 
ion      s      p      d    tot
    1  0.000  0.075  0.000  0.075
    2  0.000  0.075  0.000  0.075
tot    0.000  0.150  0.000  0.150
 
band    14 # energy   19.04628552 # occ.  0.00000000
 
ion      s      p      d    tot
    1  0.059  0.218  0.000  0.277
    2  0.059  0.218  0.000  0.277
tot    0.118  0.436  0.000  0.554
 
band    15 # energy   23.70917154 # occ.  0.00000000
 
ion      s      p      d    tot
    1  0.048  0.018  0.000  0.066
    2  0.048  0.018  0.000  0.066
tot    0.096  0.036  0.000  0.132
 
band    16 # energy   25.96120222 # occ.  0.00000000
 
ion      s      p      d    tot
    1  0.000  0.023  0.000  0.023
    2  0.000  0.023  0.000  0.023
tot    0.000  0.046  0.000  0.046
 
band    17 # energy   25.96120226 # occ.  0.00000000
 
ion      s      p      d    tot
    1  0.000  0.023  0.000  0.023
    2  0.000  0.023  0.000  0.023
tot    0.000  0.046  0.000  0.046
 
band    18 # energy   26.98110929 # occ.  0.00000000
 
ion      s      p      d    tot
    1  0.021  0.056  0.000  0.076
    2  0.021  0.056  0.000  0.076
tot    0.041  0.112  0.000  0.153
 

 k-point     4 :    0.42105263 0.42105263 0.42105263     weight = 0.01250000

band     1 # energy   -4.01253941 # occ.  2.00000000
 
ion      s      p      d    tot
    1  0.215  0.015  0.000  0.229
    2  0.215  0.015  0.000  0.229
tot    0.429  0.029  0.000  0.459
 
band     2 # energy   -0.62616290 # occ.  2.00000000
 
ion      s      p      d    tot
    1  0.104  0.093  0.000  0.197
    2  0.104  0.093  0.000  0.197
tot    0.208  0.186  0.000  0.393
 
band     3 # energy    4.70124339 # occ.  2.00000000
 
ion      s      p      d    tot
    1  0.000  0.215  0.000  0.215
    2  0.000  0.215  0.000  0.215
tot    0.000  0.429  0.000  0.429
 
band     4 # energy    4.70124340 # occ.  2.00000000
 
ion      s      p      d    tot
    1  0.000  0.215  0.000  0.215
    2  0.000  0.215  0.000  0.215
tot    0.000  0.429  0.000  0.429
 
band     5 # energy    7.32936437 # occ.  0.00000000
 
ion      s      p      d    tot
    1  0.184  0.022  0.000  0.206
    2  0.184  0.022  0.000  0.206
tot    0.367  0.044  0.000  0.411
 
band     6 # energy    9.15207735 # occ.  0.00000000
 
ion      s      p      d    tot
    1  0.000  0.098  0.000  0.098
    2  0.000  0.098  0.000  0.098
tot    0.000  0.196  0.000  0.196
 
band     7 # energy    9.15207736 # occ.  0.00000000
 
ion      s      p      d    tot
    1  0.000  0.098  0.000  0.098
    2  0.000  0.098  0.000  0.098
tot    0.000  0.196  0.000  0.196
 
band     8 # energy   13.49332647 # occ.  0.00000000
 
ion      s      p      d    tot
    1  0.005  0.061  0.000  0.066
    2  0.005  0.061  0.000  0.066
tot    0.009  0.122  0.000  0.131
 
band     9 # energy   15.08634427 # occ.  0.00000000
 
ion      s      p      d    tot
    1  0.000  0.042  0.000  0.042
    2  0.000  0.042  0.000  0.042
tot    0.000  0.085  0.000  0.085
 
band    10 # energy   15.08634430 # occ.  0.00000000
 
ion      s      p      d    tot
    1  0.000  0.042  0.000  0.042
    2  0.000  0.042  0.000  0.042
tot    0.000  0.085  0.000  0.085
 
band    11 # energy   16.09981158 # occ.  0.00000000
 
ion      s      p      d    tot
    1  0.079  0.135  0.000  0.215
    2  0.079  0.135  0.000  0.215
tot    0.158  0.271  0.000  0.429
 
band    12 # energy   18.42235772 # occ.  0.00000000
 
ion      s      p      d    tot
    1  0.000  0.069  0.000  0.069
    2  0.000  0.069  0.000  0.069
tot    0.000  0.138  0.000  0.138
 
band    13 # energy   18.42235775 # occ.  0.00000000
 
ion      s      p      d    tot
    1  0.000  0.069  0.000  0.069
    2  0.000  0.069  0.000  0.069
tot    0.000  0.138  0.000  0.138
 
band    14 # energy   19.39143266 # occ.  0.00000000
 
ion      s      p      d    tot
    1  0.041  0.227  0.000  0.269
    2  0.041  0.227  0.000  0.269
tot    0.082  0.455  0.000  0.537
 
band    15 # energy   23.04156598 # occ.  0.00000000
 
ion      s      p      d    tot
    1  0.056  0.007  0.000  0.063
    2  0.056  0.007  0.000  0.063
tot    0.111  0.015  0.000  0.126
 
band    16 # energy   25.27409900 # occ.  0.00000000
 
ion      s      p      d    tot
    1  0.000  0.024  0.000  0.024
    2  0.000  0.024  0.000  0.024
tot    0.000  0.049  0.000  0.049
 
band    17 # energy   25.27409902 # occ.  0.00000000
 
ion      s      p      d    tot
    1  0.000  0.024  0.000  0.024
    2  0.000  0.024  0.000  0.024
tot    0.000  0.049  0.000  0.049
 
band    18 # energy   27.82700756 # occ.  0.00000000
 
ion      s      p      d    tot
    1  0.017  0.060  0.000  0.077
    2  0.017  0.060  0.000  0.077
tot    0.034  0.119  0.000  0.153
 

 k-point     5 :    0.39473684 0.39473684 0.39473684     weight = 0.01250000

band     1 # energy   -4.19546721 # occ.  2.00000000
 
ion      s      p      d    tot
    1  0.212  0.014  0.000  0.226
    2  0.212  0.014  0.000  0.226
tot    0.424  0.029  0.000  0.453
 
band     2 # energy   -0.32505002 # occ.  2.00000000
 
ion      s      p      d    tot
    1  0.105  0.094  0.000  0.200
    2  0.105  0.094  0.000  0.200
tot    0.211  0.189  0.000  0.400
 
band     3 # energy    4.73572550 # occ.  2.00000000
 
ion      s      p      d    tot
    1  0.000  0.214  0.000  0.214
    2  0.000  0.214  0.000  0.214
tot    0.000  0.428  0.000  0.428
 
band     4 # energy    4.73572551 # occ.  2.00000000
 
ion      s      p      d    tot
    1  0.000  0.214  0.000  0.214
    2  0.000  0.214  0.000  0.214
tot    0.000  0.428  0.000  0.428
 
band     5 # energy    7.36882256 # occ.  0.00000000
 
ion      s      p      d    tot
    1  0.181  0.024  0.000  0.206
    2  0.181  0.024  0.000  0.206
tot    0.363  0.049  0.000  0.411
 
band     6 # energy    9.18577563 # occ.  0.00000000
 
ion      s      p      d    tot
    1  0.000  0.101  0.000  0.101
    2  0.000  0.101  0.000  0.101
tot    0.000  0.203  0.000  0.203
 
band     7 # energy    9.18577565 # occ.  0.00000000
 
ion      s      p      d    tot
    1  0.000  0.101  0.000  0.101
    2  0.000  0.101  0.000  0.101
tot    0.000  0.203  0.000  0.203
 
band     8 # energy   13.54087759 # occ.  0.00000000
 
ion      s      p      d    tot
    1  0.004  0.070  0.000  0.074
    2  0.004  0.070  0.000  0.074
tot    0.007  0.141  0.000  0.148
 
band     9 # energy   14.63913000 # occ.  0.00000000
 
ion      s      p      d    tot
    1  0.000  0.043  0.000  0.043
    2  0.000  0.043  0.000  0.043
tot    0.000  0.085  0.000  0.085
 
band    10 # energy   14.63913002 # occ.  0.00000000
 
ion      s      p      d    tot
    1  0.000  0.043  0.000  0.043
    2  0.000  0.043  0.000  0.043
tot    0.000  0.085  0.000  0.085
 
band    11 # energy   15.66020572 # occ.  0.00000000
 
ion      s      p      d    tot
    1  0.093  0.121  0.000  0.214
    2  0.093  0.121  0.000  0.214
tot    0.185  0.243  0.000  0.428
 
band    12 # energy   19.00858301 # occ.  0.00000000
 
ion      s      p      d    tot
    1  0.000  0.065  0.000  0.065
    2  0.000  0.065  0.000  0.065
tot    0.000  0.130  0.000  0.130
 
band    13 # energy   19.00858304 # occ.  0.00000000
 
ion      s      p      d    tot
    1  0.000  0.065  0.000  0.065
    2  0.000  0.065  0.000  0.065
tot    0.000  0.130  0.000  0.130
 
band    14 # energy   19.64252166 # occ.  0.00000000
 
ion      s      p      d    tot
    1  0.024  0.233  0.000  0.257
    2  0.024  0.233  0.000  0.257
tot    0.048  0.465  0.000  0.513
 
band    15 # energy   22.52142361 # occ.  0.00000000
 
ion      s      p      d    tot
    1  0.065  0.000  0.000  0.065
    2  0.065  0.000  0.000  0.065
tot    0.129  0.000  0.000  0.130
 
band    16 # energy   24.60723006 # occ.  0.00000000
 
ion      s      p      d    tot
    1  0.000  0.026  0.000  0.026
    2  0.000  0.026  0.000  0.026
tot    0.000  0.052  0.000  0.052
 
band    17 # energy   24.60723008 # occ.  0.00000000
 
ion      s      p      d    tot
    1  0.000  0.026  0.000  0.026
    2  0.000  0.026  0.000  0.026
tot    0.000  0.052  0.000  0.052
 
band    18 # energy   28.60593880 # occ.  0.00000000
 
ion      s      p      d    tot
    1  0.009  0.071  0.000  0.079
    2  0.009  0.071  0.000  0.079
tot    0.017  0.141  0.000  0.158
 

 k-point     6 :    0.36842105 0.36842105 0.36842105     weight = 0.01250000

band     1 # energy   -4.39108060 # occ.  2.00000000
 
ion      s      p      d    tot
    1  0.210  0.014  0.000  0.224
    2  0.210  0.014  0.000  0.224
tot    0.420  0.027  0.000  0.447
 
band     2 # energy    0.02181372 # occ.  2.00000000
 
ion      s      p      d    tot
    1  0.106  0.097  0.000  0.203
    2  0.106  0.097  0.000  0.203
tot    0.212  0.194  0.000  0.406
 
band     3 # energy    4.77971624 # occ.  2.00000000
 
ion      s      p      d    tot
    1  0.000  0.214  0.000  0.214
    2  0.000  0.214  0.000  0.214
tot    0.000  0.427  0.000  0.427
 
band     4 # energy    4.77971624 # occ.  2.00000000
 
ion      s      p      d    tot
    1  0.000  0.214  0.000  0.214
    2  0.000  0.214  0.000  0.214
tot    0.000  0.427  0.000  0.427
 
band     5 # energy    7.41875702 # occ.  0.00000000
 
ion      s      p      d    tot
    1  0.178  0.027  0.000  0.205
    2  0.178  0.027  0.000  0.205
tot    0.357  0.054  0.000  0.411
 
band     6 # energy    9.22296306 # occ.  0.00000000
 
ion      s      p      d    tot
    1  0.000  0.106  0.000  0.106
    2  0.000  0.106  0.000  0.106
tot    0.000  0.212  0.000  0.212
 
band     7 # energy    9.22296307 # occ.  0.00000000
 
ion      s      p      d    tot
    1  0.000  0.106  0.000  0.106
    2  0.000  0.106  0.000  0.106
tot    0.000  0.212  0.000  0.212
 
band     8 # energy   13.58145601 # occ.  0.00000000
 
ion      s      p      d    tot
    1  0.004  0.087  0.000  0.091
    2  0.004  0.087  0.000  0.091
tot    0.008  0.173  0.000  0.181
 
band     9 # energy   14.22181584 # occ.  0.00000000
 
ion      s      p      d    tot
    1  0.000  0.040  0.000  0.040
    2  0.000  0.040  0.000  0.040
tot    0.000  0.081  0.000  0.081
 
band    10 # energy   14.22181586 # occ.  0.00000000
 
ion      s      p      d    tot
    1  0.000  0.040  0.000  0.040
    2  0.000  0.040  0.000  0.040
tot    0.000  0.081  0.000  0.081
 
band    11 # energy   15.23512758 # occ.  0.00000000
 
ion      s      p      d    tot
    1  0.104  0.100  0.000  0.204
    2  0.104  0.100  0.000  0.204
tot    0.208  0.201  0.000  0.409
 
band    12 # energy   19.58773717 # occ.  0.00000000
 
ion      s      p      d    tot
    1  0.000  0.062  0.000  0.062
    2  0.000  0.062  0.000  0.062
tot    0.000  0.124  0.000  0.124
 
band    13 # energy   19.58773720 # occ.  0.00000000
 
ion      s      p      d    tot
    1  0.000  0.062  0.000  0.062
    2  0.000  0.062  0.000  0.062
tot    0.000  0.124  0.000  0.124
 
band    14 # energy   19.65899775 # occ.  0.00000000
 
ion      s      p      d    tot
    1  0.014  0.215  0.000  0.228
    2  0.014  0.215  0.000  0.228
tot    0.027  0.429  0.000  0.457
 
band    15 # energy   22.26774400 # occ.  0.00000000
 
ion      s      p      d    tot
    1  0.069  0.014  0.000  0.083
    2  0.069  0.014  0.000  0.083
tot    0.137  0.028  0.000  0.166
 
band    16 # energy   23.97460586 # occ.  0.00000000
 
ion      s      p      d    tot
    1  0.000  0.027  0.000  0.027
    2  0.000  0.027  0.000  0.027
tot    0.000  0.055  0.000  0.055
 
band    17 # energy   23.97460587 # occ.  0.00000000
 
ion      s      p      d    tot
    1  0.000  0.027  0.000  0.027
    2  0.000  0.027  0.000  0.027
tot    0.000  0.055  0.000  0.055
 
band    18 # energy   28.33725115 # occ.  0.00000000
 
ion      s      p      d    tot
    1  0.007  0.037  0.000  0.044
    2  0.007  0.037  0.000  0.044
tot    0.014  0.074  0.000  0.089
 

 k-point     7 :    0.34210526 0.34210526 0.34210526     weight = 0.01250000

band     1 # energy   -4.58905489 # occ.  2.00000000
 
ion      s      p      d    tot
    1  0.209  0.013  0.000  0.221
    2  0.209  0.013  0.000  0.221
tot    0.417  0.025  0.000  0.443
 
band     2 # energy    0.40391905 # occ.  2.00000000
 
ion      s      p      d    tot
    1  0.105  0.100  0.000  0.205
    2  0.105  0.100  0.000  0.205
tot    0.211  0.200  0.000  0.411
 
band     3 # energy    4.83354154 # occ.  2.00000000
 
ion      s      p      d    tot
    1  0.000  0.213  0.000  0.213
    2  0.000  0.213  0.000  0.213
tot    0.000  0.426  0.000  0.426
 
band     4 # energy    4.83354154 # occ.  2.00000000
 
ion      s      p      d    tot
    1  0.000  0.213  0.000  0.213
    2  0.000  0.213  0.000  0.213
tot    0.000  0.426  0.000  0.426
 
band     5 # energy    7.47940036 # occ.  0.00000000
 
ion      s      p      d    tot
    1  0.175  0.030  0.000  0.205
    2  0.175  0.030  0.000  0.205
tot    0.350  0.061  0.000  0.411
 
band     6 # energy    9.25871645 # occ.  0.00000000
 
ion      s      p      d    tot
    1  0.000  0.112  0.000  0.112
    2  0.000  0.112  0.000  0.112
tot    0.000  0.223  0.000  0.223
 
band     7 # energy    9.25871646 # occ.  0.00000000
 
ion      s      p      d    tot
    1  0.000  0.112  0.000  0.112
    2  0.000  0.112  0.000  0.112
tot    0.000  0.223  0.000  0.223
 
band     8 # energy   13.57962231 # occ.  0.00000000
 
ion      s      p      d    tot
    1  0.011  0.113  0.000  0.124
    2  0.011  0.113  0.000  0.124
tot    0.021  0.227  0.000  0.248
 
band     9 # energy   13.84265909 # occ.  0.00000000
 
ion      s      p      d    tot
    1  0.000  0.037  0.000  0.037
    2  0.000  0.037  0.000  0.037
tot    0.000  0.074  0.000  0.074
 
band    10 # energy   13.84265911 # occ.  0.00000000
 
ion      s      p      d    tot
    1  0.000  0.037  0.000  0.037
    2  0.000  0.037  0.000  0.037
tot    0.000  0.074  0.000  0.074
 
band    11 # energy   14.86732939 # occ.  0.00000000
 
ion      s      p      d    tot
    1  0.108  0.069  0.000  0.177
    2  0.108  0.069  0.000  0.177
tot    0.217  0.137  0.000  0.354
 
band    12 # energy   19.37284473 # occ.  0.00000000
 
ion      s      p      d    tot
    1  0.015  0.173  0.000  0.189
    2  0.015  0.173  0.000  0.189
tot    0.031  0.347  0.000  0.378
 
band    13 # energy   20.13256122 # occ.  0.00000000
 
ion      s      p      d    tot
    1  0.000  0.058  0.000  0.058
    2  0.000  0.058  0.000  0.058
tot    0.000  0.117  0.000  0.117
 
band    14 # energy   20.13256126 # occ.  0.00000000
 
ion      s      p      d    tot
    1  0.000  0.058  0.000  0.058
    2  0.000  0.058  0.000  0.058
tot    0.000  0.117  0.000  0.117
 
band    15 # energy   22.35252768 # occ.  0.00000000
 
ion      s      p      d    tot
    1  0.062  0.050  0.000  0.112
    2  0.062  0.050  0.000  0.112
tot    0.123  0.100  0.000  0.223
 
band    16 # energy   23.41091733 # occ.  0.00000000
 
ion      s      p      d    tot
    1  0.000  0.030  0.000  0.030
    2  0.000  0.030  0.000  0.030
tot    0.000  0.060  0.000  0.060
 
band    17 # energy   23.41091734 # occ.  0.00000000
 
ion      s      p      d    tot
    1  0.000  0.030  0.000  0.030
    2  0.000  0.030  0.000  0.030
tot    0.000  0.060  0.000  0.060
 
band    18 # energy   27.66020416 # occ.  0.00000000
 
ion      s      p      d    tot
    1  0.010  0.031  0.000  0.042
    2  0.010  0.031  0.000  0.042
tot    0.021  0.063  0.000  0.083
 

 k-point     8 :    0.31578947 0.31578947 0.31578947     weight = 0.01250000

band     1 # energy   -4.78283860 # occ.  2.00000000
 
ion      s      p      d    tot
    1  0.208  0.011  0.000  0.219
    2  0.208  0.011  0.000  0.219
tot    0.416  0.023  0.000  0.439
 
band     2 # energy    0.81403101 # occ.  2.00000000
 
ion      s      p      d    tot
    1  0.104  0.104  0.000  0.208
    2  0.104  0.104  0.000  0.208
tot    0.207  0.208  0.000  0.415
 
band     3 # energy    4.89677212 # occ.  2.00000000
 
ion      s      p      d    tot
    1  0.000  0.212  0.000  0.212
    2  0.000  0.212  0.000  0.212
tot    0.000  0.425  0.000  0.425
 
band     4 # energy    4.89677212 # occ.  2.00000000
 
ion      s      p      d    tot
    1  0.000  0.212  0.000  0.212
    2  0.000  0.212  0.000  0.212
tot    0.000  0.425  0.000  0.425
 
band     5 # energy    7.55041136 # occ.  0.00000000
 
ion      s      p      d    tot
    1  0.171  0.034  0.000  0.205
    2  0.171  0.034  0.000  0.205
tot    0.341  0.069  0.000  0.410
 
band     6 # energy    9.28655080 # occ.  0.00000000
 
ion      s      p      d    tot
    1  0.000  0.118  0.000  0.118
    2  0.000  0.118  0.000  0.118
tot    0.000  0.237  0.000  0.237
 
band     7 # energy    9.28655081 # occ.  0.00000000
 
ion      s      p      d    tot
    1  0.000  0.118  0.000  0.118
    2  0.000  0.118  0.000  0.118
tot    0.000  0.237  0.000  0.237
 
band     8 # energy   13.46715543 # occ.  0.00000000
 
ion      s      p      d    tot
    1  0.034  0.146  0.000  0.180
    2  0.034  0.146  0.000  0.180
tot    0.068  0.292  0.000  0.359
 
band     9 # energy   13.51240800 # occ.  0.00000000
 
ion      s      p      d    tot
    1  0.000  0.032  0.000  0.032
    2  0.000  0.032  0.000  0.032
tot    0.000  0.064  0.000  0.064
 
band    10 # energy   13.51240802 # occ.  0.00000000
 
ion      s      p      d    tot
    1  0.000  0.032  0.000  0.032
    2  0.000  0.032  0.000  0.032
tot    0.000  0.064  0.000  0.064
 
band    11 # energy   14.62733536 # occ.  0.00000000
 
ion      s      p      d    tot
    1  0.096  0.032  0.000  0.128
    2  0.096  0.032  0.000  0.128
tot    0.192  0.065  0.000  0.257
 
band    12 # energy   18.88764611 # occ.  0.00000000
 
ion      s      p      d    tot
    1  0.023  0.135  0.000  0.158
    2  0.023  0.135  0.000  0.158
tot    0.045  0.270  0.000  0.315
 
band    13 # energy   20.55940233 # occ.  0.00000000
 
ion      s      p      d    tot
    1  0.000  0.052  0.000  0.052
    2  0.000  0.052  0.000  0.052
tot    0.000  0.105  0.000  0.105
 
band    14 # energy   20.55940239 # occ.  0.00000000
 
ion      s      p      d    tot
    1  0.000  0.052  0.000  0.052
    2  0.000  0.052  0.000  0.052
tot    0.000  0.105  0.000  0.105
 
band    15 # energy   22.66332168 # occ.  0.00000000
 
ion      s      p      d    tot
    1  0.050  0.080  0.000  0.130
    2  0.050  0.080  0.000  0.130
tot    0.099  0.161  0.000  0.260
 
band    16 # energy   23.00275363 # occ.  0.00000000
 
ion      s      p      d    tot
    1  0.000  0.035  0.000  0.035
    2  0.000  0.035  0.000  0.035
tot    0.000  0.069  0.000  0.069
 
band    17 # energy   23.00275363 # occ.  0.00000000
 
ion      s      p      d    tot
    1  0.000  0.035  0.000  0.035
    2  0.000  0.035  0.000  0.035
tot    0.000  0.069  0.000  0.069
 
band    18 # energy   26.98908017 # occ.  0.00000000
 
ion      s      p      d    tot
    1  0.013  0.031  0.000  0.044
    2  0.013  0.031  0.000  0.044
tot    0.026  0.061  0.000  0.087
 

 k-point     9 :    0.28947368 0.28947368 0.28947368     weight = 0.01250000

band     1 # energy   -4.96813081 # occ.  2.00000000
 
ion      s      p      d    tot
    1  0.208  0.010  0.000  0.218
    2  0.208  0.010  0.000  0.218
tot    0.415  0.020  0.000  0.435
 
band     2 # energy    1.24720188 # occ.  2.00000000
 
ion      s      p      d    tot
    1  0.101  0.109  0.000  0.210
    2  0.101  0.109  0.000  0.210
tot    0.202  0.218  0.000  0.420
 
band     3 # energy    4.96910850 # occ.  2.00000000
 
ion      s      p      d    tot
    1  0.000  0.212  0.000  0.212
    2  0.000  0.212  0.000  0.212
tot    0.000  0.423  0.000  0.423
 
band     4 # energy    4.96910850 # occ.  2.00000000
 
ion      s      p      d    tot
    1  0.000  0.212  0.000  0.212
    2  0.000  0.212  0.000  0.212
tot    0.000  0.423  0.000  0.423
 
band     5 # energy    7.63169075 # occ.  0.00000000
 
ion      s      p      d    tot
    1  0.166  0.039  0.000  0.205
    2  0.166  0.039  0.000  0.205
tot    0.331  0.078  0.000  0.409
 
band     6 # energy    9.29867808 # occ.  0.00000000
 
ion      s      p      d    tot
    1  0.000  0.126  0.000  0.126
    2  0.000  0.126  0.000  0.126
tot    0.000  0.252  0.000  0.252
 
band     7 # energy    9.29867809 # occ.  0.00000000
 
ion      s      p      d    tot
    1  0.000  0.126  0.000  0.126
    2  0.000  0.126  0.000  0.126
tot    0.000  0.252  0.000  0.252
 
band     8 # energy   13.19713780 # occ.  0.00000000
 
ion      s      p      d    tot
    1  0.069  0.159  0.000  0.228
    2  0.069  0.159  0.000  0.228
tot    0.138  0.318  0.000  0.456
 
band     9 # energy   13.23716029 # occ.  0.00000000
 
ion      s      p      d    tot
    1  0.000  0.026  0.000  0.026
    2  0.000  0.026  0.000  0.026