   4   4   1   0
  0.1112999E+02  0.3544200E-09  0.3544200E-09  0.3544200E-09  0.5000000E-15
  1.000000000000000E-004
  CAR 
 Co_fcc                                  
     25.86770374     -0.03158377 1000     11.12565589      1.00000000
     -0.032  0.0000E+00  0.0000E+00
     -0.006  0.0000E+00  0.0000E+00
      0.020  0.0000E+00  0.0000E+00
      0.046  0.0000E+00  0.0000E+00
      0.072  0.0000E+00  0.0000E+00
      0.098  0.0000E+00  0.0000E+00
      0.124  0.0000E+00  0.0000E+00
      0.150  0.0000E+00  0.0000E+00
      0.176  0.0000E+00  0.0000E+00
      0.202  0.0000E+00  0.0000E+00
      0.228  0.0000E+00  0.0000E+00
      0.254  0.0000E+00  0.0000E+00
      0.280  0.0000E+00  0.0000E+00
      0.305  0.0000E+00  0.0000E+00
      0.331  0.0000E+00  0.0000E+00
      0.357  0.0000E+00  0.0000E+00
      0.383  0.0000E+00  0.0000E+00
      0.409  0.0000E+00  0.0000E+00
      0.435  0.0000E+00  0.0000E+00
      0.461  0.0000E+00  0.0000E+00
      0.487  0.0000E+00  0.0000E+00
      0.513  0.0000E+00  0.0000E+00
      0.539  0.0000E+00  0.0000E+00
      0.565  0.0000E+00  0.0000E+00
      0.591  0.0000E+00  0.0000E+00
      0.617  0.0000E+00  0.0000E+00
      0.642  0.0000E+00  0.0000E+00
      0.668  0.0000E+00  0.0000E+00
      0.694  0.0000E+00  0.0000E+00
      0.720 -0.6750E-31 -0.1750E-32
      0.746 -0.6073E-27 -0.1575E-28
      0.772 -0.1764E-23 -0.4574E-25
      0.798 -0.2983E-20 -0.7738E-22
      0.824 -0.2937E-17 -0.7622E-19
      0.850 -0.1639E-14 -0.4258E-16
      0.876 -0.5414E-12 -0.1408E-13
      0.902 -0.1039E-09 -0.2707E-11
      0.928 -0.1152E-07 -0.3012E-09
      0.954 -0.7348E-06 -0.1935E-07
      0.979 -0.2681E-04 -0.7143E-06
      1.005 -0.5524E-03 -0.1504E-04
      1.031 -0.6284E-02 -0.1780E-03
      1.057 -0.3740E-01 -0.1148E-02
      1.083 -0.9713E-01 -0.3666E-02
      1.109  0.2371E-01 -0.3051E-02
      1.135  0.7492E+00  0.1637E-01
      1.161  0.2014E+01  0.6859E-01
      1.187  0.3076E+01  0.1483E+00
      1.213  0.3305E+01  0.2340E+00
      1.239  0.2734E+01  0.3049E+00
      1.265  0.2037E+01  0.3577E+00
      1.291  0.1648E+01  0.4005E+00
      1.317  0.1470E+01  0.4386E+00
      1.342  0.1355E+01  0.4737E+00
      1.368  0.1261E+01  0.5064E+00
      1.394  0.1183E+01  0.5371E+00
      1.420  0.1118E+01  0.5660E+00
      1.446  0.1063E+01  0.5936E+00
      1.472  0.1015E+01  0.6199E+00
      1.498  0.9738E+00  0.6452E+00
      1.524  0.9373E+00  0.6695E+00
      1.550  0.9047E+00  0.6929E+00
      1.576  0.8757E+00  0.7156E+00
      1.602  0.8491E+00  0.7376E+00
      1.628  0.8257E+00  0.7590E+00
      1.654  0.8030E+00  0.7799E+00
      1.679  0.7840E+00  0.8002E+00
      1.705  0.7637E+00  0.8200E+00
      1.731  0.7482E+00  0.8394E+00
      1.757  0.7304E+00  0.8583E+00
      1.783  0.7165E+00  0.8769E+00
      1.809  0.7031E+00  0.8951E+00
      1.835  0.6865E+00  0.9129E+00
      1.861  0.6812E+00  0.9306E+00
      1.887  0.6585E+00  0.9476E+00
      1.913  0.6610E+00  0.9648E+00
      1.939  0.6381E+00  0.9813E+00
      1.965  0.6348E+00  0.9978E+00
      1.991  0.6296E+00  0.1014E+01
      2.017  0.6041E+00  0.1030E+01
      2.042  0.6207E+00  0.1046E+01
      2.068  0.5896E+00  0.1061E+01
      2.094  0.5900E+00  0.1076E+01
      2.120  0.5977E+00  0.1092E+01
      2.146  0.5570E+00  0.1106E+01
      2.172  0.5847E+00  0.1122E+01
      2.198  0.5669E+00  0.1136E+01
      2.224  0.5370E+00  0.1150E+01
      2.250  0.5777E+00  0.1165E+01
      2.276  0.5360E+00  0.1179E+01
      2.302  0.5245E+00  0.1193E+01
      2.328  0.5681E+00  0.1207E+01
      2.354  0.5095E+00  0.1221E+01
      2.379  0.5136E+00  0.1234E+01
      2.405  0.5586E+00  0.1248E+01
      2.431  0.4883E+00  0.1261E+01
      2.457  0.5002E+00  0.1274E+01
      2.483  0.5520E+00  0.1288E+01
      2.509  0.4729E+00  0.1301E+01
      2.535  0.4813E+00  0.1313E+01
      2.561  0.5485E+00  0.1327E+01
      2.587  0.4655E+00  0.1339E+01
      2.613  0.4553E+00  0.1351E+01
      2.639  0.5448E+00  0.1365E+01
      2.665  0.4706E+00  0.1377E+01
      2.691  0.4237E+00  0.1388E+01
      2.716  0.5326E+00  0.1402E+01
      2.742  0.4918E+00  0.1415E+01
      2.768  0.3950E+00  0.1425E+01
      2.794  0.5007E+00  0.1438E+01
      2.820  0.5248E+00  0.1452E+01
      2.846  0.3868E+00  0.1462E+01
      2.872  0.4434E+00  0.1473E+01
      2.898  0.5505E+00  0.1488E+01
      2.924  0.4177E+00  0.1498E+01
      2.950  0.3742E+00  0.1508E+01
      2.976  0.5362E+00  0.1522E+01
      3.002  0.4879E+00  0.1535E+01
      3.028  0.3343E+00  0.1543E+01
      3.054  0.4602E+00  0.1555E+01
      3.079  0.5568E+00  0.1570E+01
      3.105  0.3707E+00  0.1579E+01
      3.131  0.3502E+00  0.1588E+01
      3.157  0.5534E+00  0.1603E+01
      3.183  0.4818E+00  0.1615E+01
      3.209  0.2929E+00  0.1623E+01
      3.235  0.4425E+00  0.1634E+01
      3.261  0.5787E+00  0.1649E+01
      3.287  0.3653E+00  0.1659E+01
      3.313  0.2991E+00  0.1667E+01
      3.339  0.5433E+00  0.1681E+01
      3.365  0.5234E+00  0.1694E+01
      3.391  0.2740E+00  0.1701E+01
      3.416  0.3744E+00  0.1711E+01
      3.442  0.5971E+00  0.1726E+01
      3.468  0.4219E+00  0.1737E+01
      3.494  0.2460E+00  0.1744E+01
      3.520  0.4737E+00  0.1756E+01
      3.546  0.5844E+00  0.1771E+01
      3.572  0.3232E+00  0.1780E+01
      3.598  0.2828E+00  0.1787E+01
      3.624  0.5503E+00  0.1801E+01
      3.650  0.5196E+00  0.1815E+01
      3.676  0.2670E+00  0.1822E+01
      3.702  0.3577E+00  0.1831E+01
      3.728  0.5748E+00  0.1846E+01
      3.753  0.4390E+00  0.1857E+01
      3.779  0.2700E+00  0.1864E+01
      3.805  0.4289E+00  0.1875E+01
      3.831  0.5447E+00  0.1889E+01
      3.857  0.3847E+00  0.1899E+01
      3.883  0.3139E+00  0.1908E+01
      3.909  0.4410E+00  0.1919E+01
      3.935  0.4952E+00  0.1932E+01
      3.961  0.5325E+00  0.1946E+01
      3.987  0.6826E+00  0.1963E+01
      4.013  0.6974E+00  0.1981E+01
      4.039  0.5383E+00  0.1995E+01
      4.065  0.4184E+00  0.2006E+01
      4.091  0.4006E+00  0.2017E+01
      4.116  0.5769E+00  0.2032E+01
      4.142  0.8225E+00  0.2053E+01
      4.168  0.7036E+00  0.2071E+01
      4.194  0.3607E+00  0.2080E+01
      4.220  0.3591E+00  0.2090E+01
      4.246  0.5667E+00  0.2104E+01
      4.272  0.4525E+00  0.2116E+01
      4.298  0.2713E+00  0.2123E+01
      4.324  0.4596E+00  0.2135E+01
      4.350  0.5914E+00  0.2150E+01
      4.376  0.3798E+00  0.2160E+01
      4.402  0.3274E+00  0.2169E+01
      4.428  0.5178E+00  0.2182E+01
      4.453  0.5282E+00  0.2196E+01
      4.479  0.4028E+00  0.2206E+01
      4.505  0.3908E+00  0.2216E+01
      4.531  0.4837E+00  0.2229E+01
      4.557  0.5518E+00  0.2243E+01
      4.583  0.4434E+00  0.2255E+01
      4.609  0.3644E+00  0.2264E+01
      4.635  0.5390E+00  0.2278E+01
      4.661  0.5825E+00  0.2293E+01
      4.687  0.4066E+00  0.2304E+01
      4.713  0.4323E+00  0.2315E+01
      4.739  0.5831E+00  0.2330E+01
      4.765  0.5681E+00  0.2345E+01
      4.791  0.4440E+00  0.2356E+01
      4.816  0.4792E+00  0.2369E+01
      4.842  0.6352E+00  0.2385E+01
      4.868  0.5823E+00  0.2400E+01
      4.894  0.4711E+00  0.2413E+01
      4.920  0.5729E+00  0.2427E+01
      4.946  0.6906E+00  0.2445E+01
      4.972  0.6024E+00  0.2461E+01
      4.998  0.5492E+00  0.2475E+01
      5.024  0.6983E+00  0.2493E+01
      5.050  0.7628E+00  0.2513E+01
      5.076  0.6542E+00  0.2530E+01
      5.102  0.6517E+00  0.2547E+01
      5.128  0.7762E+00  0.2567E+01
      5.153  0.1101E+01  0.2596E+01
      5.179  0.2073E+01  0.2649E+01
      5.205  0.3155E+01  0.2731E+01
      5.231  0.3995E+01  0.2835E+01
      5.257  0.6860E+01  0.3013E+01
      5.283  0.1122E+02  0.3304E+01
      5.309  0.1124E+02  0.3595E+01
      5.335  0.6419E+01  0.3761E+01
      5.361  0.2711E+01  0.3832E+01
      5.387  0.1968E+01  0.3883E+01
      5.413  0.2045E+01  0.3936E+01
      5.439  0.1960E+01  0.3986E+01
      5.465  0.1943E+01  0.4037E+01
      5.490  0.1915E+01  0.4086E+01
      5.516  0.1781E+01  0.4133E+01
      5.542  0.1760E+01  0.4178E+01
      5.568  0.1767E+01  0.4224E+01
      5.594  0.1676E+01  0.4268E+01
      5.620  0.1670E+01  0.4311E+01
      5.646  0.1684E+01  0.4354E+01
      5.672  0.1624E+01  0.4397E+01
      5.698  0.1637E+01  0.4439E+01
      5.724  0.1644E+01  0.4482E+01
      5.750  0.1595E+01  0.4523E+01
      5.776  0.1525E+01  0.4563E+01
      5.802  0.1372E+01  0.4598E+01
      5.828  0.1952E+01  0.4649E+01
      5.853  0.4460E+01  0.4764E+01
      5.879  0.7465E+01  0.4958E+01
      5.905  0.7971E+01  0.5164E+01
      5.931  0.6397E+01  0.5330E+01
      5.957  0.5078E+01  0.5462E+01
      5.983  0.4562E+01  0.5580E+01
      6.009  0.4871E+01  0.5707E+01
      6.035  0.6196E+01  0.5867E+01
      6.061  0.7432E+01  0.6060E+01
      6.087  0.7465E+01  0.6253E+01
      6.113  0.7291E+01  0.6442E+01
      6.139  0.7721E+01  0.6643E+01
      6.165  0.7325E+01  0.6832E+01
      6.190  0.5348E+01  0.6971E+01
      6.216  0.3569E+01  0.7064E+01
      6.242  0.3048E+01  0.7143E+01
      6.268  0.3089E+01  0.7223E+01
      6.294  0.3136E+01  0.7304E+01
      6.320  0.3133E+01  0.7385E+01
      6.346  0.3106E+01  0.7466E+01
      6.372  0.3323E+01  0.7552E+01
      6.398  0.4609E+01  0.7671E+01
      6.424  0.7327E+01  0.7861E+01
      6.450  0.9626E+01  0.8111E+01
      6.476  0.9038E+01  0.8345E+01
      6.502  0.6408E+01  0.8511E+01
      6.527  0.4498E+01  0.8628E+01
      6.553  0.3891E+01  0.8729E+01
      6.579  0.3723E+01  0.8825E+01
      6.605  0.3581E+01  0.8918E+01
      6.631  0.3444E+01  0.9008E+01
      6.657  0.3325E+01  0.9094E+01
      6.683  0.3222E+01  0.9177E+01
      6.709  0.3128E+01  0.9258E+01
      6.735  0.3054E+01  0.9338E+01
      6.761  0.3077E+01  0.9417E+01
      6.787  0.3204E+01  0.9500E+01
      6.813  0.3214E+01  0.9584E+01
      6.839  0.3013E+01  0.9662E+01
      6.865  0.2829E+01  0.9735E+01
      6.890  0.2766E+01  0.9807E+01
      6.916  0.2748E+01  0.9878E+01
      6.942  0.2729E+01  0.9949E+01
      6.968  0.2708E+01  0.1002E+02
      6.994  0.2688E+01  0.1009E+02
      7.020  0.2664E+01  0.1016E+02
      7.046  0.2671E+01  0.1023E+02
      7.072  0.2789E+01  0.1030E+02
      7.098  0.2964E+01  0.1038E+02
      7.124  0.2954E+01  0.1045E+02
      7.150  0.2780E+01  0.1052E+02
      7.176  0.2674E+01  0.1059E+02
      7.202  0.2657E+01  0.1066E+02
      7.227  0.2630E+01  0.1073E+02
      7.253  0.2629E+01  0.1080E+02
      7.279  0.3260E+01  0.1088E+02
      7.305  0.5830E+01  0.1104E+02
      7.331  0.9841E+01  0.1129E+02
      7.357  0.1199E+02  0.1160E+02
      7.383  0.1095E+02  0.1188E+02
      7.409  0.8870E+01  0.1211E+02
      7.435  0.8001E+01  0.1232E+02
      7.461  0.8636E+01  0.1255E+02
      7.487  0.8838E+01  0.1278E+02
      7.513  0.7135E+01  0.1296E+02
      7.539  0.5114E+01  0.1309E+02
      7.565  0.4299E+01  0.1320E+02
      7.590  0.4227E+01  0.1331E+02
      7.616  0.4232E+01  0.1342E+02
      7.642  0.4187E+01  0.1353E+02
      7.668  0.4167E+01  0.1364E+02
      7.694  0.4138E+01  0.1375E+02
      7.720  0.4267E+01  0.1386E+02
      7.746  0.4896E+01  0.1399E+02
      7.772  0.5955E+01  0.1414E+02
      7.798  0.5952E+01  0.1429E+02
      7.824  0.4794E+01  0.1442E+02
      7.850  0.5097E+01  0.1455E+02
      7.876  0.6467E+01  0.1472E+02
      7.902  0.6167E+01  0.1488E+02
      7.927  0.4608E+01  0.1500E+02
      7.953  0.3566E+01  0.1509E+02
      7.979  0.3381E+01  0.1518E+02
      8.005  0.4232E+01  0.1529E+02
      8.031  0.5962E+01  0.1544E+02
      8.057  0.6844E+01  0.1562E+02
      8.083  0.6170E+01  0.1578E+02
      8.109  0.5220E+01  0.1591E+02
      8.135  0.4692E+01  0.1604E+02
      8.161  0.4454E+01  0.1615E+02
      8.187  0.4292E+01  0.1626E+02
      8.213  0.4134E+01  0.1637E+02
      8.239  0.3999E+01  0.1647E+02
      8.264  0.3799E+01  0.1657E+02
      8.290  0.3720E+01  0.1667E+02
      8.316  0.4495E+01  0.1678E+02
      8.342  0.6291E+01  0.1695E+02
      8.368  0.7552E+01  0.1714E+02
      8.394  0.7307E+01  0.1733E+02
      8.420  0.6642E+01  0.1751E+02
      8.446  0.6155E+01  0.1767E+02
      8.472  0.5279E+01  0.1780E+02
      8.498  0.4121E+01  0.1791E+02
      8.524  0.3485E+01  0.1800E+02
      8.550  0.3575E+01  0.1809E+02
      8.576  0.4288E+01  0.1820E+02
      8.602  0.5153E+01  0.1834E+02
      8.627  0.5446E+01  0.1848E+02
      8.653  0.5187E+01  0.1861E+02
      8.679  0.4530E+01  0.1873E+02
      8.705  0.3785E+01  0.1883E+02
      8.731  0.3761E+01  0.1893E+02
      8.757  0.4568E+01  0.1904E+02
      8.783  0.5099E+01  0.1918E+02
      8.809  0.4906E+01  0.1930E+02
      8.835  0.5155E+01  0.1944E+02
      8.861  0.6800E+01  0.1961E+02
      8.887  0.8443E+01  0.1983E+02
      8.913  0.7645E+01  0.2003E+02
      8.939  0.6034E+01  0.2019E+02
      8.964  0.6406E+01  0.2035E+02
      8.990  0.7320E+01  0.2054E+02
      9.016  0.8346E+01  0.2076E+02
      9.042  0.1131E+02  0.2105E+02
      9.068  0.1339E+02  0.2140E+02
      9.094  0.1094E+02  0.2168E+02
      9.120  0.6463E+01  0.2185E+02
      9.146  0.4306E+01  0.2196E+02
      9.172  0.5307E+01  0.2210E+02
      9.198  0.7154E+01  0.2228E+02
      9.224  0.7601E+01  0.2248E+02
      9.250  0.6915E+01  0.2266E+02
      9.276  0.6499E+01  0.2283E+02
      9.301  0.6551E+01  0.2300E+02
      9.327  0.6589E+01  0.2317E+02
      9.353  0.6597E+01  0.2334E+02
      9.379  0.6596E+01  0.2351E+02
      9.405  0.6608E+01  0.2368E+02
      9.431  0.6540E+01  0.2385E+02
      9.457  0.6472E+01  0.2402E+02
      9.483  0.6673E+01  0.2419E+02
      9.509  0.6929E+01  0.2437E+02
      9.535  0.7083E+01  0.2456E+02
      9.561  0.7332E+01  0.2475E+02
      9.587  0.8032E+01  0.2496E+02
      9.613  0.9205E+01  0.2519E+02
      9.639  0.9986E+01  0.2545E+02
      9.664  0.1126E+02  0.2575E+02
      9.690  0.1500E+02  0.2613E+02
      9.716  0.1811E+02  0.2660E+02
      9.742  0.1605E+02  0.2702E+02
      9.768  0.1069E+02  0.2730E+02
      9.794  0.7131E+01  0.2748E+02
      9.820  0.6694E+01  0.2766E+02
      9.846  0.7499E+01  0.2785E+02
      9.872  0.7886E+01  0.2805E+02
      9.898  0.7164E+01  0.2824E+02
      9.924  0.5741E+01  0.2839E+02
      9.950  0.4485E+01  0.2850E+02
      9.976  0.5482E+01  0.2865E+02
     10.001  0.1557E+02  0.2905E+02
     10.027  0.3420E+02  0.2994E+02
     10.053  0.3946E+02  0.3096E+02
     10.079  0.2321E+02  0.3156E+02
     10.105  0.7681E+01  0.3176E+02
     10.131  0.3743E+01  0.3186E+02
     10.157  0.4487E+01  0.3197E+02
     10.183  0.5167E+01  0.3211E+02
     10.209  0.5652E+01  0.3225E+02
     10.235  0.6589E+01  0.3243E+02
     10.261  0.7142E+01  0.3261E+02
     10.287  0.5744E+01  0.3276E+02
     10.313  0.3157E+01  0.3284E+02
     10.339  0.1490E+01  0.3288E+02
     10.364  0.1351E+01  0.3292E+02
     10.390  0.2184E+01  0.3297E+02
     10.416  0.3123E+01  0.3305E+02
     10.442  0.3492E+01  0.3314E+02
     10.468  0.3191E+01  0.3323E+02
     10.494  0.2733E+01  0.3330E+02
     10.520  0.2607E+01  0.3336E+02
     10.546  0.2752E+01  0.3344E+02
     10.572  0.2884E+01  0.3351E+02
     10.598  0.2778E+01  0.3358E+02
     10.624  0.2573E+01  0.3365E+02
     10.650  0.2602E+01  0.3372E+02
     10.676  0.2934E+01  0.3379E+02
     10.701  0.3336E+01  0.3388E+02
     10.727  0.3326E+01  0.3397E+02
     10.753  0.2830E+01  0.3404E+02
     10.779  0.2451E+01  0.3410E+02
     10.805  0.2537E+01  0.3417E+02
     10.831  0.2726E+01  0.3424E+02
     10.857  0.2794E+01  0.3431E+02
     10.883  0.3560E+01  0.3440E+02
     10.909  0.5359E+01  0.3454E+02
     10.935  0.6557E+01  0.3471E+02
     10.961  0.6848E+01  0.3489E+02
     10.987  0.7768E+01  0.3509E+02
     11.013  0.7996E+01  0.3530E+02
     11.038  0.5712E+01  0.3545E+02
     11.064  0.3619E+01  0.3554E+02
     11.090  0.5099E+01  0.3567E+02
     11.116  0.8857E+01  0.3590E+02
     11.142  0.1012E+02  0.3616E+02
     11.168  0.7725E+01  0.3637E+02
     11.194  0.5291E+01  0.3650E+02
     11.220  0.4649E+01  0.3662E+02
     11.246  0.4789E+01  0.3675E+02
     11.272  0.4740E+01  0.3687E+02
     11.298  0.4509E+01  0.3699E+02
     11.324  0.4413E+01  0.3710E+02
     11.350  0.4382E+01  0.3721E+02
     11.376  0.4392E+01  0.3733E+02
     11.401  0.4520E+01  0.3745E+02
     11.427  0.4551E+01  0.3756E+02
     11.453  0.4410E+01  0.3768E+02
     11.479  0.4443E+01  0.3779E+02
     11.505  0.4768E+01  0.3792E+02
     11.531  0.4854E+01  0.3804E+02
     11.557  0.4431E+01  0.3816E+02
     11.583  0.4203E+01  0.3827E+02
     11.609  0.4582E+01  0.3839E+02
     11.635  0.4903E+01  0.3851E+02
     11.661  0.4759E+01  0.3864E+02
     11.687  0.4717E+01  0.3876E+02
     11.713  0.5018E+01  0.3889E+02
     11.738  0.5160E+01  0.3902E+02
     11.764  0.5252E+01  0.3916E+02
     11.790  0.5670E+01  0.3931E+02
     11.816  0.5996E+01  0.3946E+02
     11.842  0.6216E+01  0.3962E+02
     11.868  0.7546E+01  0.3982E+02
     11.894  0.9776E+01  0.4007E+02
     11.920  0.9899E+01  0.4033E+02
     11.946  0.7026E+01  0.4051E+02
     11.972  0.4687E+01  0.4063E+02
     11.998  0.4636E+01  0.4075E+02
     12.024  0.4901E+01  0.4088E+02
     12.050  0.4063E+01  0.4098E+02
     12.075  0.2589E+01  0.4105E+02
     12.101  0.2000E+01  0.4110E+02
     12.127  0.8149E+01  0.4131E+02
     12.153  0.2586E+02  0.4198E+02
     12.179  0.3762E+02  0.4296E+02
     12.205  0.2495E+02  0.4361E+02
     12.231  0.5800E+01  0.4376E+02
     12.257 -0.9739E+00  0.4373E+02
     12.283 -0.4633E+00  0.4372E+02
     12.309  0.3247E+00  0.4373E+02
     12.335  0.5459E+00  0.4374E+02
     12.361  0.6215E+00  0.4376E+02
     12.387  0.6440E+00  0.4377E+02
     12.413  0.6477E+00  0.4379E+02
     12.438  0.7042E+00  0.4381E+02
     12.464  0.1113E+01  0.4384E+02
     12.490  0.2225E+01  0.4390E+02
     12.516  0.3623E+01  0.4399E+02
     12.542  0.4235E+01  0.4410E+02
     12.568  0.3619E+01  0.4419E+02
     12.594  0.2464E+01  0.4426E+02
     12.620  0.1610E+01  0.4430E+02
     12.646  0.1234E+01  0.4433E+02
     12.672  0.1139E+01  0.4436E+02
     12.698  0.1111E+01  0.4439E+02
     12.724  0.1117E+01  0.4442E+02
     12.750  0.1050E+01  0.4445E+02
     12.775  0.9409E+00  0.4447E+02
     12.801  0.9838E+00  0.4450E+02
     12.827  0.9939E+00  0.4452E+02
     12.853  0.9311E+00  0.4455E+02
     12.879  0.8824E+00  0.4457E+02
     12.905  0.8427E+00  0.4459E+02
     12.931  0.9299E+00  0.4461E+02
     12.957  0.9588E+00  0.4464E+02
     12.983  0.7510E+00  0.4466E+02
     13.009  0.7406E+00  0.4468E+02
     13.035  0.9825E+00  0.4470E+02
     13.061  0.9125E+00  0.4473E+02
     13.087  0.6403E+00  0.4474E+02
     13.112  0.7418E+00  0.4476E+02
     13.138  0.9757E+00  0.4479E+02
     13.164  0.8401E+00  0.4481E+02
     13.190  0.6295E+00  0.4483E+02
     13.216  0.7449E+00  0.4485E+02
     13.242  0.9029E+00  0.4487E+02
     13.268  0.7995E+00  0.4489E+02
     13.294  0.6748E+00  0.4491E+02
     13.320  0.7308E+00  0.4493E+02
     13.346  0.8067E+00  0.4495E+02
     13.372  0.7732E+00  0.4497E+02
     13.398  0.7361E+00  0.4499E+02
     13.424  0.7275E+00  0.4501E+02
     13.450  0.7142E+00  0.4502E+02
     13.475  0.7302E+00  0.4504E+02
     13.501  0.7859E+00  0.4506E+02
     13.527  0.7580E+00  0.4508E+02
     13.553  0.6506E+00  0.4510E+02
     13.579  0.6572E+00  0.4512E+02
     13.605  0.7961E+00  0.4514E+02
     13.631  0.8185E+00  0.4516E+02
     13.657  0.6443E+00  0.4518E+02
     13.683  0.5703E+00  0.4519E+02
     13.709  0.7433E+00  0.4521E+02
     13.735  0.8739E+00  0.4523E+02
     13.761  0.7100E+00  0.4525E+02
     13.787  0.5151E+00  0.4526E+02
     13.812  0.6294E+00  0.4528E+02
     13.838  0.8708E+00  0.4530E+02
     13.864  0.8222E+00  0.4532E+02
     13.890  0.5450E+00  0.4534E+02
     13.916  0.5005E+00  0.4535E+02
     13.942  0.7712E+00  0.4537E+02
     13.968  0.9091E+00  0.4539E+02
     13.994  0.6750E+00  0.4541E+02
     14.020  0.4417E+00  0.4542E+02
     14.046  0.5942E+00  0.4544E+02
     14.072  0.8865E+00  0.4546E+02
     14.098  0.8421E+00  0.4548E+02
     14.124  0.5234E+00  0.4550E+02
     14.150  0.4360E+00  0.4551E+02
     14.175  0.7238E+00  0.4553E+02
     14.201  0.9248E+00  0.4555E+02
     14.227  0.7205E+00  0.4557E+02
     14.253  0.4238E+00  0.4558E+02
     14.279  0.5003E+00  0.4559E+02
     14.305  0.8296E+00  0.4562E+02
     14.331  0.8944E+00  0.4564E+02
     14.357  0.5965E+00  0.4565E+02
     14.383  0.3867E+00  0.4566E+02
     14.409  0.5907E+00  0.4568E+02
     14.435  0.8890E+00  0.4570E+02
     14.461  0.8259E+00  0.4572E+02
     14.487  0.4996E+00  0.4574E+02
     14.512  0.3963E+00  0.4575E+02
     14.538  0.6747E+00  0.4576E+02
     14.564  0.9055E+00  0.4579E+02
     14.590  0.7474E+00  0.4581E+02
     14.616  0.4379E+00  0.4582E+02
     14.642  0.4301E+00  0.4583E+02
     14.668  0.7367E+00  0.4585E+02
     14.694  0.8925E+00  0.4587E+02
     14.720  0.6768E+00  0.4589E+02
     14.746  0.4072E+00  0.4590E+02
     14.772  0.4702E+00  0.4591E+02
     14.798  0.7738E+00  0.4593E+02
     14.824  0.8639E+00  0.4596E+02
     14.849  0.6223E+00  0.4597E+02
     14.875  0.3993E+00  0.4598E+02
     14.901  0.5057E+00  0.4599E+02
     14.927  0.7891E+00  0.4602E+02
     14.953  0.8298E+00  0.4604E+02
     14.979  0.5853E+00  0.4605E+02
     15.005  0.4062E+00  0.4606E+02
     15.031  0.5321E+00  0.4608E+02
     15.057  0.7876E+00  0.4610E+02
     15.083  0.7959E+00  0.4612E+02
     15.109  0.5635E+00  0.4613E+02
     15.135  0.4222E+00  0.4614E+02
     15.161  0.5491E+00  0.4616E+02
     15.187  0.7738E+00  0.4618E+02
     15.212  0.7647E+00  0.4620E+02
     15.238  0.5530E+00  0.4621E+02
     15.264  0.4437E+00  0.4622E+02
     15.290  0.5592E+00  0.4624E+02
     15.316  0.7516E+00  0.4626E+02
     15.342  0.7362E+00  0.4628E+02
     15.368  0.5490E+00  0.4629E+02
     15.394  0.4684E+00  0.4630E+02
     15.420  0.5667E+00  0.4632E+02
     15.446  0.7242E+00  0.4634E+02
     15.472  0.7095E+00  0.4635E+02
     15.498  0.5470E+00  0.4637E+02
     15.524  0.4936E+00  0.4638E+02
     15.549  0.5765E+00  0.4640E+02
     15.575  0.6954E+00  0.4641E+02
     15.601  0.6830E+00  0.4643E+02
     15.627  0.5435E+00  0.4645E+02
     15.653  0.5154E+00  0.4646E+02
     15.679  0.5925E+00  0.4647E+02
     15.705  0.6702E+00  0.4649E+02
     15.731  0.6557E+00  0.4651E+02
     15.757  0.5360E+00  0.4652E+02
     15.783  0.5284E+00  0.4654E+02
     15.809  0.6154E+00  0.4655E+02
     15.835  0.6558E+00  0.4657E+02
     15.861  0.6275E+00  0.4659E+02
     15.886  0.5241E+00  0.4660E+02
     15.912  0.5277E+00  0.4661E+02
     15.938  0.6402E+00  0.4663E+02
     15.964  0.6601E+00  0.4665E+02
     15.990  0.6021E+00  0.4666E+02
     16.016  0.5076E+00  0.4668E+02
     16.042  0.5116E+00  0.4669E+02
     16.068  0.6555E+00  0.4671E+02
     16.094  0.6870E+00  0.4672E+02
     16.120  0.5887E+00  0.4674E+02
     16.146  0.4867E+00  0.4675E+02
     16.172  0.4831E+00  0.4676E+02
     16.198  0.6482E+00  0.4678E+02
     16.224  0.7294E+00  0.4680E+02
     16.249  0.6021E+00  0.4682E+02
     16.275  0.4648E+00  0.4683E+02
     16.301  0.4467E+00  0.4684E+02
     16.327  0.6121E+00  0.4685E+02
     16.353  0.7657E+00  0.4687E+02
     16.379  0.6533E+00  0.4689E+02
     16.405  0.4550E+00  0.4690E+02
     16.431  0.4048E+00  0.4691E+02
     16.457  0.5525E+00  0.4693E+02
     16.483  0.7693E+00  0.4695E+02
     16.509  0.7341E+00  0.4697E+02
     16.535  0.4823E+00  0.4698E+02
     16.561  0.3614E+00  0.4699E+02
     16.586  0.4798E+00  0.4700E+02
     16.612  0.7266E+00  0.4702E+02
     16.638  0.8093E+00  0.4704E+02
     16.664  0.5668E+00  0.4706E+02
     16.690  0.3365E+00  0.4706E+02
     16.716  0.3977E+00  0.4708E+02
     16.742  0.6471E+00  0.4709E+02
     16.768  0.8361E+00  0.4711E+02
     16.794  0.6942E+00  0.4713E+02
     16.820  0.3703E+00  0.4714E+02
     16.846  0.3126E+00  0.4715E+02
     16.872  0.5452E+00  0.4716E+02
     16.898  0.7992E+00  0.4718E+02
     16.924  0.8080E+00  0.4721E+02
     16.949  0.4887E+00  0.4722E+02
     16.975  0.2604E+00  0.4722E+02
     17.001  0.4218E+00  0.4724E+02
     17.027  0.7162E+00  0.4725E+02
     17.053  0.8530E+00  0.4728E+02
     17.079  0.6560E+00  0.4729E+02
     17.105  0.3021E+00  0.4730E+02
     17.131  0.2915E+00  0.4731E+02
     17.157  0.5970E+00  0.4732E+02
     17.183  0.8266E+00  0.4735E+02
     17.209  0.7879E+00  0.4737E+02
     17.235  0.4535E+00  0.4738E+02
     17.261  0.2229E+00  0.4738E+02
     17.286  0.4350E+00  0.4739E+02
     17.312  0.7511E+00  0.4741E+02
     17.338  0.8383E+00  0.4744E+02
     17.364  0.6363E+00  0.4745E+02
     17.390  0.2899E+00  0.4746E+02
     17.416  0.2747E+00  0.4747E+02
     17.442  0.6142E+00  0.4748E+02
     17.468  0.8282E+00  0.4750E+02
     17.494  0.7579E+00  0.4752E+02
     17.520  0.4611E+00  0.4754E+02
     17.546  0.2257E+00  0.4754E+02
     17.572  0.4188E+00  0.4755E+02
     17.598  0.7566E+00  0.4757E+02
     17.623  0.8145E+00  0.4759E+02
     17.649  0.6208E+00  0.4761E+02
     17.675  0.3267E+00  0.4762E+02
     17.701  0.2706E+00  0.4762E+02
     17.727  0.5890E+00  0.4764E+02
     17.753  0.8225E+00  0.4766E+02
     17.779  0.7264E+00  0.4768E+02
     17.805  0.4760E+00  0.4769E+02
     17.831  0.2716E+00  0.4770E+02
     17.857  0.3835E+00  0.4771E+02
     17.883  0.7142E+00  0.4773E+02
     17.909  0.8549E+00  0.4775E+02
     17.935  0.8180E+00  0.4777E+02
     17.961  0.6785E+00  0.4779E+02
     17.986  0.5257E+00  0.4780E+02
     18.012  0.7634E+00  0.4782E+02
     18.038  0.1116E+01  0.4785E+02
     18.064  0.9457E+00  0.4788E+02
     18.090  0.5205E+00  0.4789E+02
     18.116  0.3227E+00  0.4790E+02
     18.142  0.4354E+00  0.4791E+02
     18.168  0.7404E+00  0.4793E+02
     18.194  0.8499E+00  0.4795E+02
     18.220  0.6732E+00  0.4797E+02
     18.246  0.5287E+00  0.4798E+02
     18.272  0.4318E+00  0.4799E+02
     18.298  0.2177E+00  0.4800E+02
     18.323  0.5599E-01  0.4800E+02
     18.349  0.2402E+00  0.4801E+02
     18.375  0.5971E+00  0.4802E+02
     18.401  0.6761E+00  0.4804E+02
     18.427  0.5566E+00  0.4805E+02
     18.453  0.5605E+00  0.4807E+02
     18.479  0.6987E+00  0.4809E+02
     18.505  0.7305E+00  0.4811E+02
     18.531  0.4864E+00  0.4812E+02
     18.557  0.3624E+00  0.4813E+02
     18.583  0.6603E+00  0.4814E+02
     18.609  0.1045E+01  0.4817E+02
     18.635  0.1212E+01  0.4820E+02
     18.660  0.9865E+00  0.4823E+02
     18.686  0.4963E+00  0.4824E+02
     18.712  0.3416E+00  0.4825E+02
     18.738  0.5457E+00  0.4826E+02
     18.764  0.6746E+00  0.4828E+02
     18.790  0.6848E+00  0.4830E+02
     18.816  0.5367E+00  0.4831E+02
     18.842  0.3038E+00  0.4832E+02
     18.868  0.3617E+00  0.4833E+02
     18.894  0.5875E+00  0.4835E+02
     18.920  0.6123E+00  0.4836E+02
     18.946  0.5127E+00  0.4838E+02
     18.972  0.3708E+00  0.4838E+02
     18.998  0.2631E+00  0.4839E+02
     19.023  0.4312E+00  0.4840E+02
     19.049  0.6511E+00  0.4842E+02
     19.075  0.5908E+00  0.4843E+02
     19.101  0.4427E+00  0.4845E+02
     19.127  0.3281E+00  0.4845E+02
     19.153  0.3003E+00  0.4846E+02
     19.179  0.5230E+00  0.4848E+02
     19.205  0.6802E+00  0.4849E+02
     19.231  0.5225E+00  0.4851E+02
     19.257  0.3646E+00  0.4852E+02
     19.283  0.3103E+00  0.4852E+02
     19.309  0.3517E+00  0.4853E+02
     19.335  0.6030E+00  0.4855E+02
     19.360  0.7738E+00  0.4857E+02
     19.386  0.6255E+00  0.4859E+02
     19.412  0.4196E+00  0.4860E+02
     19.438  0.3348E+00  0.4861E+02
     19.464  0.3960E+00  0.4862E+02
     19.490  0.6237E+00  0.4863E+02
     19.516  0.6707E+00  0.4865E+02
     19.542  0.2901E+00  0.4866E+02
     19.568  0.3338E+00  0.4867E+02
     19.594  0.2468E+01  0.4873E+02
     19.620  0.6696E+01  0.4890E+02
     19.646  0.9763E+01  0.4916E+02
     19.672  0.9120E+01  0.4939E+02
     19.698  0.6557E+01  0.4956E+02
     19.723  0.4785E+01  0.4969E+02
     19.749  0.4127E+01  0.4979E+02
     19.775  0.3895E+01  0.4989E+02
     19.801  0.3700E+01  0.4999E+02
     19.827  0.3410E+01  0.5008E+02
     19.853  0.3160E+01  0.5016E+02
     19.879  0.3045E+01  0.5024E+02
     19.905  0.2945E+01  0.5032E+02
     19.931  0.2874E+01  0.5039E+02
     19.957  0.3032E+01  0.5047E+02
     19.983  0.3200E+01  0.5055E+02
     20.009  0.2789E+01  0.5062E+02
     20.035  0.2120E+01  0.5068E+02
     20.060  0.2020E+01  0.5073E+02
     20.086  0.2469E+01  0.5080E+02
     20.112  0.2861E+01  0.5087E+02
     20.138  0.2379E+01  0.5093E+02
     20.164  0.1139E+01  0.5096E+02
     20.190  0.4623E+00  0.5097E+02
     20.216  0.6471E+00  0.5099E+02
     20.242  0.8283E+00  0.5101E+02
     20.268  0.7437E+00  0.5103E+02
     20.294  0.6344E+00  0.5105E+02
     20.320  0.5343E+00  0.5106E+02
     20.346  0.5472E+00  0.5108E+02
     20.372  0.7180E+00  0.5109E+02
     20.397  0.7923E+00  0.5111E+02
     20.423  0.6843E+00  0.5113E+02
     20.449  0.5867E+00  0.5115E+02
     20.475  0.5457E+00  0.5116E+02
     20.501  0.5353E+00  0.5118E+02
     20.527  0.5565E+00  0.5119E+02
     20.553  0.3765E+00  0.5120E+02
     20.579 -0.1072E+00  0.5120E+02
     20.605  0.6491E+00  0.5121E+02
     20.631  0.5351E+01  0.5135E+02
     20.657  0.1193E+02  0.5166E+02
     20.683  0.1363E+02  0.5202E+02
     20.709  0.1012E+02  0.5228E+02
     20.735  0.6621E+01  0.5245E+02
     20.760  0.4955E+01  0.5258E+02
     20.786  0.4093E+01  0.5268E+02
     20.812  0.3397E+01  0.5277E+02
     20.838  0.2522E+01  0.5284E+02
     20.864  0.1350E+01  0.5287E+02
     20.890  0.6653E+00  0.5289E+02
     20.916  0.1061E+01  0.5292E+02
     20.942  0.1616E+01  0.5296E+02
     20.968  0.1424E+01  0.5300E+02
     20.994  0.1067E+01  0.5302E+02
     21.020  0.1015E+01  0.5305E+02
     21.046  0.8039E+00  0.5307E+02
     21.072  0.4211E+00  0.5308E+02
     21.097  0.3424E+00  0.5309E+02
     21.123  0.4974E+00  0.5310E+02
     21.149  0.5700E+00  0.5312E+02
     21.175  0.5762E+00  0.5313E+02
     21.201  0.5880E+00  0.5315E+02
     21.227  0.6456E+00  0.5316E+02
     21.253  0.7732E+00  0.5318E+02
     21.279  0.6876E+00  0.5320E+02
     21.305  0.3811E+00  0.5321E+02
     21.331  0.2564E+00  0.5322E+02
     21.357  0.3339E+00  0.5323E+02