PROCAR new format
# of k-points:  100         # of bands:   54         # of ions:    4

 k-point     1 :    0.00000000 0.50000000 0.00000000     weight = 0.01000000

band     1 # energy    3.98286345 # occ.  1.00000000
 
ion      s      p      d    tot
    1  0.091  0.047  0.021  0.160
    2  0.139  0.031  0.032  0.202
    3  0.091  0.047  0.021  0.160
    4  0.139  0.031  0.032  0.202
tot    0.461  0.156  0.107  0.725
    1  0.000  0.000 -0.000  0.000
    2 -0.000 -0.000 -0.000 -0.000
    3  0.000  0.000 -0.000  0.000
    4  0.000 -0.000  0.000  0.000
tot    0.000 -0.000 -0.000  0.000
    1  0.000  0.000  0.000  0.000
    2 -0.000 -0.000 -0.000 -0.000
    3  0.000  0.000 -0.000  0.000
    4  0.000 -0.000  0.000  0.000
tot    0.000 -0.000 -0.000  0.000
    1  0.091  0.047  0.021  0.160
    2  0.139  0.031  0.032  0.202
    3  0.091  0.047  0.021  0.160
    4  0.139  0.031  0.032  0.202
tot    0.461  0.156  0.107  0.725
 
band     2 # energy    3.98286345 # occ.  1.00000000
 
ion      s      p      d    tot
    1  0.139  0.031  0.032  0.202
    2  0.091  0.047  0.021  0.160
    3  0.139  0.031  0.032  0.202
    4  0.091  0.047  0.021  0.160
tot    0.461  0.156  0.107  0.725
    1  0.000 -0.000 -0.000  0.000
    2 -0.000 -0.000 -0.000 -0.000
    3  0.000 -0.000 -0.000  0.000
    4  0.000 -0.000  0.000  0.000
tot    0.000 -0.000 -0.000  0.000
    1 -0.000  0.000  0.000 -0.000
    2 -0.000  0.000  0.000 -0.000
    3 -0.000  0.000  0.000 -0.000
    4 -0.000  0.000  0.000 -0.000
tot   -0.000  0.000  0.000 -0.000
    1  0.139  0.031  0.032  0.202
    2  0.091  0.047  0.021  0.160
    3  0.139  0.031  0.032  0.202
    4  0.091  0.047  0.021  0.160
tot    0.461  0.156  0.107  0.725
 
band     3 # energy    4.13006117 # occ.  1.00000000
 
ion      s      p      d    tot
    1  0.052  0.066  0.007  0.125
    2  0.188  0.018  0.026  0.232
    3  0.052  0.066  0.007  0.125
    4  0.188  0.018  0.026  0.232
tot    0.480  0.167  0.066  0.714
    1  0.000  0.000  0.000  0.000
    2 -0.000 -0.000 -0.000 -0.000
    3  0.000  0.000  0.000  0.000
    4 -0.000 -0.000  0.000 -0.000
tot    0.000  0.000  0.000  0.000
    1  0.000 -0.000  0.000  0.000
    2  0.000  0.000 -0.000  0.000
    3 -0.000 -0.000 -0.000 -0.000
    4  0.000  0.000 -0.000  0.000
tot    0.000 -0.000 -0.000  0.000
    1 -0.052 -0.066 -0.007 -0.125
    2 -0.188 -0.018 -0.026 -0.232
    3 -0.052 -0.066 -0.007 -0.125
    4 -0.188 -0.018 -0.026 -0.232
tot   -0.480 -0.167 -0.066 -0.714
 
band     4 # energy    4.13006117 # occ.  1.00000000
 
ion      s      p      d    tot
    1  0.188  0.018  0.026  0.232
    2  0.052  0.066  0.007  0.125
    3  0.188  0.018  0.026  0.232
    4  0.052  0.066  0.007  0.125
tot    0.480  0.167  0.066  0.714
    1 -0.000 -0.000 -0.000 -0.000
    2  0.000  0.000 -0.000  0.000
    3 -0.000 -0.000  0.000 -0.000
    4  0.000  0.000 -0.000  0.000
tot   -0.000  0.000 -0.000 -0.000
    1  0.000  0.000  0.000  0.000
    2 -0.000 -0.000  0.000 -0.000
    3  0.000  0.000  0.000  0.000
    4 -0.000 -0.000  0.000 -0.000
tot    0.000  0.000  0.000  0.000
    1 -0.188 -0.018 -0.026 -0.232
    2 -0.052 -0.066 -0.007 -0.125
    3 -0.188 -0.018 -0.026 -0.232
    4 -0.052 -0.066 -0.007 -0.125
tot   -0.480 -0.167 -0.066 -0.714
 
band     5 # energy    6.15585272 # occ.  1.00000000
 
ion      s      p      d    tot
    1  0.000  0.002  0.371  0.374
    2  0.000  0.025  0.037  0.062
    3  0.000  0.002  0.371  0.374
    4  0.000  0.025  0.037  0.062
tot    0.000  0.054  0.817  0.871
    1  0.000 -0.000  0.000  0.000
    2 -0.000  0.000 -0.000 -0.000
    3  0.000 -0.000  0.000  0.000
    4 -0.000  0.000 -0.000 -0.000
tot    0.000  0.000  0.000  0.000
    1  0.000 -0.000 -0.000 -0.000
    2  0.000 -0.000 -0.000 -0.000
    3 -0.000 -0.000 -0.000 -0.000
    4  0.000 -0.000 -0.000 -0.000
tot    0.000 -0.000 -0.000 -0.000
    1  0.000  0.002  0.371  0.373
    2  0.000  0.025  0.037  0.062
    3  0.000  0.002  0.371  0.373
    4  0.000  0.025  0.037  0.062
tot    0.000  0.054  0.816  0.871
 
band     6 # energy    6.15585272 # occ.  1.00000000
 
ion      s      p      d    tot
    1  0.000  0.025  0.037  0.062
    2  0.000  0.002  0.371  0.374
    3  0.000  0.025  0.037  0.062
    4  0.000  0.002  0.371  0.374
tot    0.000  0.054  0.817  0.871
    1  0.000  0.000 -0.000 -0.000
    2  0.000 -0.000  0.000  0.000
    3 -0.000  0.000 -0.000 -0.000
    4  0.000  0.000  0.000  0.000
tot    0.000  0.000  0.000  0.000
    1 -0.000 -0.000  0.000  0.000
    2 -0.000  0.000 -0.000 -0.000
    3 -0.000 -0.000  0.000  0.000
    4 -0.000  0.000 -0.000 -0.000
tot   -0.000 -0.000 -0.000 -0.000
    1  0.000  0.025  0.037  0.062
    2  0.000  0.002  0.371  0.373
    3  0.000  0.025  0.037  0.062
    4  0.000  0.002  0.371  0.373
tot    0.000  0.054  0.816  0.871
 
band     7 # energy    6.79289134 # occ.  1.00000000
 
ion      s      p      d    tot
    1  0.000  0.000  0.428  0.428
    2  0.000  0.000  0.045  0.045
    3  0.000  0.000  0.428  0.428
    4  0.000  0.000  0.045  0.045
tot    0.000  0.000  0.945  0.945
    1  0.000 -0.000  0.000  0.000
    2  0.000  0.000 -0.000 -0.000
    3 -0.000  0.000 -0.000 -0.000
    4  0.000 -0.000 -0.000 -0.000
tot    0.000 -0.000 -0.000  0.000
    1 -0.000 -0.000 -0.000 -0.000
    2  0.000  0.000 -0.000 -0.000
    3 -0.000 -0.000 -0.000 -0.000
    4  0.000  0.000  0.000  0.000
tot   -0.000  0.000 -0.000 -0.000
    1 -0.000  0.000  0.427  0.427
    2 -0.000  0.000  0.045  0.045
    3 -0.000  0.000  0.427  0.427
    4 -0.000  0.000  0.045  0.045
tot   -0.000  0.000  0.944  0.944
 
band     8 # energy    6.79289134 # occ.  1.00000000
 
ion      s      p      d    tot
    1  0.000  0.000  0.045  0.045
    2  0.000  0.000  0.428  0.428
    3  0.000  0.000  0.045  0.045
    4  0.000  0.000  0.428  0.428
tot    0.000  0.000  0.945  0.945
    1  0.000  0.000 -0.000  0.000
    2 -0.000  0.000 -0.000 -0.000
    3  0.000  0.000  0.000  0.000
    4 -0.000 -0.000 -0.000 -0.000
tot   -0.000  0.000 -0.000 -0.000
    1  0.000  0.000  0.000  0.000
    2 -0.000 -0.000 -0.000 -0.000
    3 -0.000  0.000 -0.000 -0.000
    4 -0.000  0.000  0.000  0.000
tot   -0.000  0.000  0.000  0.000
    1 -0.000  0.000  0.045  0.045
    2 -0.000  0.000  0.427  0.427
    3 -0.000  0.000  0.045  0.045
    4 -0.000  0.000  0.427  0.427
tot   -0.000  0.000  0.944  0.944
 
band     9 # energy    7.09651587 # occ.  1.00000000
 
ion      s      p      d    tot
    1  0.000  0.031  0.111  0.141
    2  0.000  0.011  0.309  0.320
    3  0.000  0.031  0.111  0.141
    4  0.000  0.011  0.309  0.320
tot    0.000  0.083  0.839  0.923
    1 -0.000 -0.000 -0.000 -0.000
    2  0.000 -0.000 -0.000 -0.000
    3 -0.000 -0.000 -0.000 -0.000
    4  0.000 -0.000 -0.000 -0.000
tot    0.000 -0.000 -0.000 -0.000
    1  0.000  0.000  0.000  0.000
    2 -0.000  0.000  0.000  0.000
    3  0.000  0.000  0.000  0.000
    4 -0.000  0.000  0.000  0.000
tot    0.000  0.000  0.000  0.000
    1 -0.000  0.031  0.110  0.141
    2 -0.000  0.011  0.308  0.319
    3 -0.000  0.031  0.110  0.141
    4 -0.000  0.011  0.308  0.319
tot   -0.000  0.083  0.835  0.919
 
band    10 # energy    7.09651587 # occ.  1.00000000
 
ion      s      p      d    tot
    1  0.000  0.011  0.309  0.320
    2  0.000  0.031  0.111  0.141
    3  0.000  0.011  0.309  0.320
    4  0.000  0.031  0.111  0.141
tot    0.000  0.083  0.839  0.923
    1 -0.000 -0.000 -0.000 -0.000
    2  0.000 -0.000 -0.000 -0.000
    3  0.000 -0.000 -0.000 -0.000
    4  0.000 -0.000 -0.000 -0.000
tot    0.000 -0.000 -0.000 -0.000
    1 -0.000 -0.000 -0.000 -0.000
    2 -0.000  0.000 -0.000 -0.000
    3 -0.000 -0.000 -0.000 -0.000
    4 -0.000  0.000 -0.000 -0.000
tot   -0.000  0.000 -0.000 -0.000
    1 -0.000  0.011  0.308  0.319
    2 -0.000  0.031  0.110  0.141
    3 -0.000  0.011  0.308  0.319
    4 -0.000  0.031  0.110  0.141
tot   -0.000  0.083  0.835  0.919
 
band    11 # energy    7.27006822 # occ.  1.00000000
 
ion      s      p      d    tot
    1  0.000  0.013  0.288  0.301
    2  0.000  0.030  0.129  0.159
    3  0.000  0.013  0.288  0.301
    4  0.000  0.030  0.129  0.159
tot    0.000  0.086  0.835  0.921
    1  0.000 -0.000  0.000  0.000
    2 -0.000 -0.000 -0.000 -0.000
    3  0.000 -0.000  0.000  0.000
    4 -0.000 -0.000 -0.000 -0.000
tot   -0.000 -0.000 -0.000 -0.000
    1 -0.000  0.000 -0.000 -0.000
    2  0.000  0.000  0.000  0.000
    3 -0.000  0.000 -0.000 -0.000
    4  0.000  0.000  0.000  0.000
tot   -0.000  0.000 -0.000 -0.000
    1  0.000  0.013  0.288  0.301
    2  0.000  0.030  0.129  0.159
    3  0.000  0.013  0.288  0.301
    4  0.000  0.030  0.129  0.159
tot    0.000  0.086  0.834  0.921
 
band    12 # energy    7.27006822 # occ.  1.00000000
 
ion      s      p      d    tot
    1  0.000  0.030  0.129  0.159
    2  0.000  0.013  0.288  0.301
    3  0.000  0.030  0.129  0.159
    4  0.000  0.013  0.288  0.301
tot    0.000  0.086  0.835  0.921
    1 -0.000  0.000 -0.000 -0.000
    2 -0.000 -0.000 -0.000 -0.000
    3 -0.000  0.000 -0.000 -0.000
    4 -0.000 -0.000 -0.000 -0.000
tot   -0.000  0.000 -0.000 -0.000
    1  0.000 -0.000  0.000  0.000
    2  0.000 -0.000 -0.000 -0.000
    3  0.000  0.000  0.000  0.000
    4 -0.000  0.000 -0.000 -0.000
tot   -0.000  0.000 -0.000 -0.000
    1  0.000  0.030  0.129  0.159
    2  0.000  0.013  0.288  0.301
    3  0.000  0.030  0.129  0.159
    4  0.000  0.013  0.288  0.301
tot    0.000  0.086  0.834  0.921
 
band    13 # energy    7.48440218 # occ.  1.00000000
 
ion      s      p      d    tot
    1  0.000  0.034  0.017  0.052
    2  0.000  0.002  0.367  0.369
    3  0.000  0.034  0.017  0.052
    4  0.000  0.002  0.367  0.369
tot    0.000  0.072  0.769  0.841
    1 -0.000 -0.000  0.000  0.000
    2  0.000  0.000 -0.000 -0.000
    3 -0.000 -0.000  0.000  0.000
    4 -0.000  0.000 -0.000 -0.000
tot   -0.000 -0.000 -0.000 -0.000
    1 -0.000  0.000 -0.000  0.000
    2  0.000 -0.000  0.000  0.000
    3 -0.000  0.000 -0.000  0.000
    4 -0.000 -0.000  0.000  0.000
tot   -0.000  0.000  0.000  0.000
    1 -0.000 -0.034 -0.017 -0.051
    2 -0.000 -0.002 -0.365 -0.367
    3 -0.000 -0.034 -0.017 -0.051
    4 -0.000 -0.002 -0.365 -0.367
tot   -0.000 -0.071 -0.765 -0.836
 
band    14 # energy    7.48440218 # occ.  1.00000000
 
ion      s      p      d    tot
    1  0.000  0.002  0.367  0.369
    2  0.000  0.034  0.017  0.052
    3  0.000  0.002  0.367  0.369
    4  0.000  0.034  0.017  0.052
tot    0.000  0.072  0.769  0.841
    1  0.000  0.000 -0.000 -0.000
    2 -0.000 -0.000  0.000  0.000
    3 -0.000  0.000 -0.000 -0.000
    4 -0.000 -0.000  0.000  0.000
tot    0.000 -0.000 -0.000 -0.000
    1 -0.000 -0.000  0.000  0.000
    2 -0.000  0.000 -0.000  0.000
    3 -0.000 -0.000  0.000  0.000
    4  0.000  0.000 -0.000  0.000
tot   -0.000  0.000  0.000  0.000
    1 -0.000 -0.002 -0.365 -0.367
    2 -0.000 -0.034 -0.017 -0.051
    3 -0.000 -0.002 -0.365 -0.367
    4 -0.000 -0.034 -0.017 -0.051
tot   -0.000 -0.071 -0.765 -0.836
 
band    15 # energy    8.34117123 # occ.  1.00000000
 
ion      s      p      d    tot
    1  0.023  0.002  0.385  0.410
    2  0.002  0.018  0.038  0.059
    3  0.023  0.002  0.385  0.410
    4  0.002  0.018  0.038  0.059
tot    0.051  0.040  0.846  0.937
    1 -0.000 -0.000 -0.000 -0.000
    2  0.000  0.000 -0.000  0.000
    3 -0.000 -0.000  0.000 -0.000
    4  0.000  0.000  0.000  0.000
tot   -0.000  0.000 -0.000 -0.000
    1 -0.000  0.000 -0.000 -0.000
    2 -0.000  0.000 -0.000 -0.000
    3 -0.000  0.000  0.000 -0.000
    4 -0.000  0.000  0.000 -0.000
tot   -0.000  0.000 -0.000 -0.000
    1  0.023  0.002  0.383  0.408
    2  0.002  0.018  0.038  0.059
    3  0.023  0.002  0.383  0.408
    4  0.002  0.018  0.038  0.059
tot    0.051  0.040  0.842  0.932
 
band    16 # energy    8.34117123 # occ.  1.00000000
 
ion      s      p      d    tot
    1  0.002  0.018  0.038  0.059
    2  0.023  0.002  0.385  0.410
    3  0.002  0.018  0.038  0.059
    4  0.023  0.002  0.385  0.410
tot    0.051  0.040  0.846  0.937
    1 -0.000 -0.000 -0.000 -0.000
    2  0.000  0.000  0.000  0.000
    3 -0.000 -0.000  0.000 -0.000
    4  0.000  0.000 -0.000  0.000
tot   -0.000  0.000 -0.000 -0.000
    1  0.000 -0.000  0.000  0.000
    2  0.000 -0.000  0.000  0.000
    3  0.000 -0.000 -0.000  0.000
    4  0.000 -0.000 -0.000  0.000
tot    0.000 -0.000  0.000  0.000
    1  0.002  0.018  0.038  0.059
    2  0.023  0.002  0.383  0.408
    3  0.002  0.018  0.038  0.059
    4  0.023  0.002  0.383  0.408
tot    0.051  0.040  0.842  0.932
 
band    17 # energy    8.40076015 # occ.  1.00000000
 
ion      s      p      d    tot
    1  0.000  0.000  0.433  0.433
    2  0.000  0.000  0.037  0.037
    3  0.000  0.000  0.433  0.433
    4  0.000  0.000  0.037  0.037
tot    0.000  0.000  0.940  0.940
    1 -0.000  0.000 -0.000 -0.000
    2 -0.000  0.000  0.000 -0.000
    3  0.000 -0.000  0.000  0.000
    4  0.000 -0.000  0.000  0.000
tot   -0.000  0.000  0.000 -0.000
    1 -0.000  0.000 -0.000 -0.000
    2  0.000  0.000 -0.000  0.000
    3 -0.000 -0.000  0.000 -0.000
    4  0.000  0.000  0.000  0.000
tot   -0.000  0.000  0.000 -0.000
    1  0.000  0.000 -0.423 -0.423
    2  0.000  0.000 -0.036 -0.036
    3  0.000  0.000 -0.423 -0.423
    4  0.000  0.000 -0.036 -0.036
tot    0.000  0.000 -0.917 -0.917
 
band    18 # energy    8.40076015 # occ.  1.00000000
 
ion      s      p      d    tot
    1  0.000  0.000  0.037  0.037
    2  0.000  0.000  0.433  0.433
    3  0.000  0.000  0.037  0.037
    4  0.000  0.000  0.433  0.433
tot    0.000  0.000  0.940  0.940
    1 -0.000 -0.000 -0.000 -0.000
    2  0.000  0.000  0.000  0.000
    3  0.000 -0.000  0.000  0.000
    4 -0.000 -0.000  0.000 -0.000
tot    0.000 -0.000  0.000  0.000
    1  0.000  0.000  0.000  0.000
    2 -0.000 -0.000  0.000 -0.000
    3  0.000 -0.000 -0.000  0.000
    4  0.000 -0.000 -0.000  0.000
tot    0.000 -0.000 -0.000  0.000
    1  0.000  0.000 -0.036 -0.036
    2  0.000  0.000 -0.423 -0.423
    3  0.000  0.000 -0.036 -0.036
    4  0.000  0.000 -0.423 -0.423
tot    0.000  0.000 -0.917 -0.917
 
band    19 # energy    8.50533091 # occ.  1.00000000
 
ion      s      p      d    tot
    1  0.000  0.002  0.381  0.383
    2  0.000  0.057  0.012  0.069
    3  0.000  0.002  0.381  0.383
    4  0.000  0.057  0.012  0.069
tot    0.000  0.118  0.787  0.905
    1  0.000  0.000  0.000  0.000
    2 -0.000 -0.000 -0.000 -0.000
    3  0.000  0.000  0.000  0.000
    4 -0.000 -0.000 -0.000 -0.000
tot    0.000 -0.000  0.000  0.000
    1  0.000 -0.000  0.000  0.000
    2  0.000  0.000 -0.000  0.000
    3  0.000  0.000  0.000  0.000
    4 -0.000  0.000  0.000  0.000
tot    0.000  0.000  0.000  0.000
    1  0.000 -0.002 -0.369 -0.370
    2  0.000 -0.057 -0.012 -0.069
    3  0.000 -0.002 -0.369 -0.370
    4  0.000 -0.057 -0.012 -0.069
tot    0.000 -0.118 -0.760 -0.878
 
band    20 # energy    8.50533091 # occ.  1.00000000
 
ion      s      p      d    tot
    1  0.000  0.057  0.012  0.069
    2  0.000  0.002  0.381  0.383
    3  0.000  0.057  0.012  0.069
    4  0.000  0.002  0.381  0.383
tot    0.000  0.118  0.787  0.905
    1  0.000 -0.000 -0.000 -0.000
    2  0.000 -0.000 -0.000 -0.000
    3 -0.000 -0.000  0.000 -0.000
    4  0.000 -0.000  0.000  0.000
tot    0.000 -0.000  0.000  0.000
    1 -0.000 -0.000 -0.000 -0.000
    2 -0.000 -0.000  0.000 -0.000
    3 -0.000 -0.000  0.000 -0.000
    4 -0.000 -0.000 -0.000 -0.000
tot   -0.000 -0.000 -0.000 -0.000
    1  0.000 -0.057 -0.012 -0.069
    2  0.000 -0.002 -0.369 -0.370
    3  0.000 -0.057 -0.012 -0.069
    4  0.000 -0.002 -0.369 -0.370
tot    0.000 -0.118 -0.760 -0.878
 
band    21 # energy    8.53896130 # occ.  1.00000000
 
ion      s      p      d    tot
    1  0.000  0.033  0.177  0.209
    2  0.000  0.027  0.216  0.243
    3  0.000  0.033  0.177  0.209
    4  0.000  0.027  0.216  0.243
tot    0.000  0.119  0.785  0.905
    1  0.000 -0.000 -0.000 -0.000
    2 -0.000 -0.000 -0.000 -0.000
    3  0.000 -0.000 -0.000 -0.000
    4  0.000 -0.000 -0.000 -0.000
tot    0.000 -0.000 -0.000 -0.000
    1  0.000  0.000 -0.000 -0.000
    2 -0.000 -0.000  0.000  0.000
    3  0.000  0.000 -0.000 -0.000
    4 -0.000 -0.000  0.000  0.000
tot   -0.000  0.000  0.000  0.000
    1 -0.000 -0.033 -0.176 -0.209
    2 -0.000 -0.027 -0.216 -0.242
    3 -0.000 -0.033 -0.176 -0.209
    4 -0.000 -0.027 -0.216 -0.242
tot   -0.000 -0.119 -0.784 -0.903
 
band    22 # energy    8.53896130 # occ.  1.00000000
 
ion      s      p      d    tot
    1  0.000  0.027  0.216  0.243
    2  0.000  0.033  0.177  0.209
    3  0.000  0.027  0.216  0.243
    4  0.000  0.033  0.177  0.209
tot    0.000  0.119  0.785  0.905
    1 -0.000 -0.000 -0.000 -0.000
    2 -0.000 -0.000 -0.000 -0.000
    3 -0.000 -0.000 -0.000 -0.000
    4 -0.000 -0.000 -0.000 -0.000
tot   -0.000 -0.000 -0.000 -0.000
    1  0.000  0.000  0.000  0.000
    2  0.000  0.000  0.000  0.000
    3  0.000  0.000  0.000  0.000
    4  0.000  0.000  0.000  0.000
tot    0.000  0.000  0.000  0.000
    1 -0.000 -0.027 -0.216 -0.242
    2 -0.000 -0.033 -0.176 -0.209
    3 -0.000 -0.027 -0.216 -0.242
    4 -0.000 -0.033 -0.176 -0.209
tot   -0.000 -0.119 -0.784 -0.903
 
band    23 # energy    8.75427855 # occ.  1.00000000
 
ion      s      p      d    tot
    1  0.000  0.001  0.360  0.362
    2  0.000  0.004  0.121  0.125
    3  0.000  0.001  0.360  0.362
    4  0.000  0.004  0.121  0.125
tot    0.000  0.012  0.962  0.974
    1 -0.000 -0.000 -0.000 -0.000
    2  0.000  0.000 -0.000  0.000
    3  0.000 -0.000  0.000  0.000
    4  0.000 -0.000  0.000  0.000
tot    0.000 -0.000  0.000  0.000
    1  0.000 -0.000  0.000  0.000
    2 -0.000  0.000 -0.000 -0.000
    3 -0.000  0.000 -0.000 -0.000
    4  0.000 -0.000  0.000  0.000
tot    0.000 -0.000  0.000  0.000
    1 -0.000  0.001  0.358  0.359
    2 -0.000  0.004  0.120  0.124
    3 -0.000  0.001  0.358  0.359
    4 -0.000  0.004  0.120  0.124
tot   -0.000  0.011  0.956  0.968
 
band    24 # energy    8.75427855 # occ.  1.00000000
 
ion      s      p      d    tot
    1  0.000  0.004  0.121  0.125
    2  0.000  0.001  0.360  0.362
    3  0.000  0.004  0.121  0.125
    4  0.000  0.001  0.360  0.362
tot    0.000  0.012  0.962  0.974
    1  0.000 -0.000  0.000  0.000
    2  0.000 -0.000  0.000  0.000
    3 -0.000  0.000 -0.000 -0.000
    4 -0.000  0.000 -0.000 -0.000
tot    0.000 -0.000 -0.000  0.000
    1 -0.000 -0.000 -0.000 -0.000
    2 -0.000  0.000 -0.000 -0.000
    3 -0.000  0.000  0.000 -0.000
    4  0.000  0.000  0.000  0.000
tot    0.000 -0.000 -0.000  0.000
    1 -0.000  0.004  0.120  0.124
    2 -0.000  0.001  0.358  0.359
    3 -0.000  0.004  0.120  0.124
    4 -0.000  0.001  0.358  0.359
tot   -0.000  0.011  0.956  0.968
 
band    25 # energy    8.95895582 # occ.  1.00000000
 
ion      s      p      d    tot
    1  0.005  0.000  0.244  0.249
    2  0.004  0.001  0.228  0.233
    3  0.005  0.000  0.244  0.249
    4  0.004  0.001  0.228  0.233
tot    0.017  0.002  0.945  0.964
    1  0.000 -0.000  0.000  0.000
    2 -0.000 -0.000  0.000 -0.000
    3 -0.000 -0.000  0.000 -0.000
    4  0.000 -0.000  0.000  0.000
tot    0.000 -0.000  0.000  0.000
    1 -0.000  0.000 -0.000 -0.000
    2 -0.000 -0.000 -0.000 -0.000
    3 -0.000  0.000 -0.000 -0.000
    4  0.000  0.000  0.000  0.000
tot   -0.000  0.000 -0.000 -0.000
    1  0.005 -0.000  0.239  0.243
    2  0.004 -0.000  0.223  0.227
    3  0.005 -0.000  0.239  0.243
    4  0.004 -0.000  0.223  0.227
tot    0.017 -0.002  0.924  0.940
 
band    26 # energy    8.95895582 # occ.  1.00000000
 
ion      s      p      d    tot
    1  0.004  0.001  0.228  0.233
    2  0.005  0.000  0.244  0.249
    3  0.004  0.001  0.228  0.233
    4  0.005  0.000  0.244  0.249
tot    0.017  0.002  0.945  0.964
    1 -0.000 -0.000 -0.000 -0.000
    2  0.000 -0.000  0.000  0.000
    3 -0.000 -0.000 -0.000 -0.000
    4 -0.000  0.000  0.000 -0.000
tot   -0.000 -0.000 -0.000 -0.000
    1  0.000  0.000  0.000  0.000
    2  0.000  0.000 -0.000  0.000
    3  0.000  0.000  0.000  0.000
    4 -0.000  0.000 -0.000 -0.000
tot    0.000  0.000  0.000  0.000
    1  0.004 -0.000  0.223  0.227
    2  0.005 -0.000  0.239  0.243
    3  0.004 -0.000  0.223  0.227
    4  0.005 -0.000  0.239  0.243
tot    0.017 -0.002  0.924  0.940
 
band    27 # energy    8.97477715 # occ.  1.00000000
 
ion      s      p      d    tot
    1  0.000  0.004  0.189  0.192
    2  0.000  0.002  0.292  0.294
    3  0.000  0.004  0.189  0.192
    4  0.000  0.002  0.292  0.294
tot    0.000  0.012  0.961  0.973
    1  0.000 -0.000  0.000  0.000
    2 -0.000 -0.000  0.000 -0.000
    3 -0.000 -0.000 -0.000 -0.000
    4  0.000 -0.000 -0.000  0.000
tot    0.000 -0.000 -0.000  0.000
    1 -0.000  0.000 -0.000 -0.000
    2 -0.000  0.000  0.000 -0.000
    3  0.000  0.000  0.000  0.000
    4  0.000  0.000 -0.000  0.000
tot   -0.000  0.000  0.000 -0.000
    1  0.000  0.004  0.187  0.190
    2  0.000  0.002  0.289  0.291
    3  0.000  0.004  0.187  0.190
    4  0.000  0.002  0.289  0.291
tot    0.000  0.012  0.951  0.963
 
band    28 # energy    8.97477715 # occ.  1.00000000
 
ion      s      p      d    tot
    1  0.000  0.002  0.292  0.294
    2  0.000  0.004  0.189  0.192
    3  0.000  0.002  0.292  0.294
    4  0.000  0.004  0.189  0.192
tot    0.000  0.012  0.961  0.973
    1 -0.000  0.000 -0.000 -0.000
    2  0.000  0.000  0.000  0.000
    3  0.000 -0.000  0.000  0.000
    4 -0.000  0.000 -0.000 -0.000
tot   -0.000  0.000 -0.000 -0.000
    1  0.000  0.000  0.000  0.000
    2 -0.000 -0.000  0.000 -0.000
    3  0.000  0.000 -0.000  0.000
    4 -0.000 -0.000 -0.000 -0.000
tot    0.000 -0.000 -0.000  0.000
    1  0.000  0.002  0.289  0.291
    2  0.000  0.004  0.187  0.190
    3  0.000  0.002  0.289  0.291
    4  0.000  0.004  0.187  0.190
tot    0.000  0.012  0.951  0.963
 
band    29 # energy    9.34681344 # occ.  1.00000000
 
ion      s      p      d    tot
    1  0.000  0.000  0.356  0.356
    2  0.000  0.000  0.138  0.138
    3  0.000  0.000  0.356  0.356
    4  0.000  0.000  0.138  0.138
tot    0.000  0.000  0.987  0.987
    1  0.000 -0.000  0.000  0.000
    2  0.000 -0.000  0.000  0.000
    3  0.000 -0.000  0.000  0.000
    4 -0.000 -0.000 -0.000 -0.000
tot    0.000 -0.000  0.000  0.000
    1 -0.000  0.000  0.000 -0.000
    2  0.000  0.000  0.000  0.000
    3 -0.000  0.000 -0.000 -0.000
    4 -0.000  0.000 -0.000 -0.000
tot   -0.000  0.000 -0.000 -0.000
    1  0.000  0.000  0.352  0.352
    2  0.000  0.000  0.136  0.136
    3  0.000  0.000  0.352  0.352
    4  0.000  0.000  0.136  0.136
tot    0.000  0.000  0.976  0.977
 
band    30 # energy    9.34681344 # occ.  1.00000000
 
ion      s      p      d    tot
    1  0.000  0.000  0.138  0.138
    2  0.000  0.000  0.356  0.356
    3  0.000  0.000  0.138  0.138
    4  0.000  0.000  0.356  0.356
tot    0.000  0.000  0.987  0.987
    1 -0.000  0.000 -0.000 -0.000
    2  0.000 -0.000  0.000  0.000
    3  0.000  0.000  0.000  0.000
    4 -0.000 -0.000 -0.000 -0.000
tot   -0.000  0.000 -0.000 -0.000
    1  0.000  0.000  0.000  0.000
    2  0.000 -0.000 -0.000  0.000
    3  0.000  0.000  0.000  0.000
    4 -0.000 -0.000 -0.000 -0.000
tot    0.000 -0.000  0.000  0.000
    1  0.000  0.000  0.136  0.136
    2  0.000  0.000  0.352  0.352
    3  0.000  0.000  0.136  0.136
    4  0.000  0.000  0.352  0.352
tot    0.000  0.000  0.976  0.977
 
band    31 # energy   10.03471900 # occ.  1.00000000
 
ion      s      p      d    tot
    1  0.000  0.000  0.078  0.078
    2  0.000  0.000  0.419  0.419
    3  0.000  0.000  0.078  0.078
    4  0.000  0.000  0.419  0.419
tot    0.000  0.000  0.994  0.994
    1  0.000 -0.000  0.000  0.000
    2 -0.000  0.000 -0.000 -0.000
    3  0.000 -0.000  0.000  0.000
    4  0.000  0.000 -0.000 -0.000
tot    0.000 -0.000 -0.000 -0.000
    1  0.000  0.000  0.000  0.000
    2 -0.000  0.000  0.000  0.000
    3  0.000  0.000  0.000  0.000
    4  0.000  0.000  0.000  0.000
tot    0.000  0.000  0.000  0.000
    1 -0.000 -0.000  0.077  0.077
    2 -0.000 -0.000  0.419  0.419
    3 -0.000 -0.000  0.077  0.077
    4 -0.000 -0.000  0.419  0.419
tot   -0.000 -0.000  0.992  0.992
 
band    32 # energy   10.03471900 # occ.  1.00000000
 
ion      s      p      d    tot
    1  0.000  0.000  0.419  0.419
    2  0.000  0.000  0.078  0.078
    3  0.000  0.000  0.419  0.419
    4  0.000  0.000  0.078  0.078
tot    0.000  0.000  0.994  0.994
    1  0.000 -0.000 -0.000 -0.000
    2  0.000 -0.000 -0.000 -0.000
    3  0.000 -0.000 -0.000 -0.000
    4 -0.000 -0.000 -0.000 -0.000
tot    0.000 -0.000 -0.000 -0.000
    1 -0.000 -0.000  0.000  0.000
    2 -0.000  0.000 -0.000  0.000
    3 -0.000 -0.000  0.000  0.000
    4  0.000  0.000 -0.000  0.000
tot   -0.000  0.000  0.000  0.000
    1 -0.000 -0.000  0.419  0.419
    2 -0.000 -0.000  0.077  0.077
    3 -0.000 -0.000  0.419  0.419
    4 -0.000 -0.000  0.077  0.077
tot   -0.000 -0.000  0.992  0.992
 
band    33 # energy   10.07584715 # occ.  1.00000000
 
ion      s      p      d    tot
    1  0.000  0.015  0.014  0.030
    2  0.014  0.001  0.424  0.439
    3  0.000  0.015  0.014  0.030
    4  0.014  0.001  0.424  0.439
tot    0.029  0.032  0.877  0.937
    1  0.000  0.000 -0.000  0.000
    2 -0.000 -0.000  0.000 -0.000
    3 -0.000 -0.000  0.000  0.000
    4 -0.000  0.000 -0.000 -0.000
tot   -0.000  0.000 -0.000 -0.000
    1  0.000 -0.000  0.000  0.000
    2  0.000  0.000 -0.000  0.000
    3  0.000  0.000 -0.000  0.000
    4 -0.000 -0.000  0.000 -0.000
tot    0.000 -0.000  0.000  0.000
    1 -0.000 -0.015 -0.014 -0.030
    2 -0.014 -0.001 -0.422 -0.436
    3 -0.000 -0.015 -0.014 -0.030
    4 -0.014 -0.001 -0.422 -0.436
tot   -0.029 -0.032 -0.871 -0.932
 
band    34 # energy   10.07584715 # occ.  1.00000000
 
ion      s      p      d    tot
    1  0.014  0.001  0.424  0.439
    2  0.000  0.015  0.014  0.030
    3  0.014  0.001  0.424  0.439
    4  0.000  0.015  0.014  0.030
tot    0.029  0.032  0.877  0.937
    1  0.000  0.000  0.000  0.000
    2  0.000  0.000  0.000  0.000
    3  0.000 -0.000 -0.000  0.000
    4 -0.000 -0.000 -0.000 -0.000
tot    0.000 -0.000  0.000  0.000
    1 -0.000  0.000  0.000 -0.000
    2  0.000  0.000  0.000  0.000
    3  0.000 -0.000 -0.000  0.000
    4  0.000 -0.000 -0.000 -0.000
tot    0.000 -0.000 -0.000  0.000
    1 -0.014 -0.001 -0.422 -0.436
    2 -0.000 -0.015 -0.014 -0.030
    3 -0.014 -0.001 -0.422 -0.436
    4 -0.000 -0.015 -0.014 -0.030
tot   -0.029 -0.032 -0.871 -0.932
 
band    35 # energy   10.68172966 # occ.  1.00000000
 
ion      s      p      d    tot
    1  0.000  0.007  0.043  0.050
    2  0.000  0.001  0.435  0.435
    3  0.000  0.007  0.043  0.050
    4  0.000  0.001  0.435  0.435
tot    0.000  0.016  0.956  0.972
    1  0.000 -0.000  0.000  0.000
    2 -0.000 -0.000 -0.000 -0.000
    3  0.000 -0.000  0.000  0.000
    4  0.000  0.000  0.000  0.000
tot    0.000 -0.000  0.000  0.000
    1 -0.000  0.000  0.000 -0.000
    2 -0.000  0.000 -0.000 -0.000
    3 -0.000 -0.000  0.000 -0.000
    4  0.000  0.000  0.000  0.000
tot   -0.000  0.000  0.000 -0.000
    1  0.000 -0.007 -0.043 -0.050
    2  0.000 -0.001 -0.433 -0.434
    3  0.000 -0.007 -0.043 -0.050
    4  0.000 -0.001 -0.433 -0.434
tot    0.000 -0.015 -0.953 -0.968
 
band    36 # energy   10.68172966 # occ.  1.00000000
 
ion      s      p      d    tot
    1  0.000  0.001  0.435  0.435
    2  0.000  0.007  0.043  0.050
    3  0.000  0.001  0.435  0.435
    4  0.000  0.007  0.043  0.050
tot    0.000  0.016  0.956  0.972
    1  0.000  0.000  0.000  0.000
    2 -0.000 -0.000 -0.000 -0.000
    3  0.000  0.000 -0.000  0.000
    4  0.000 -0.000  0.000  0.000
tot    0.000 -0.000  0.000  0.000
    1 -0.000 -0.000  0.000 -0.000
    2  0.000  0.000  0.000  0.000
    3  0.000  0.000  0.000  0.000
    4 -0.000 -0.000  0.000 -0.000
tot    0.000  0.000  0.000  0.000
    1  0.000 -0.001 -0.433 -0.434
    2  0.000 -0.007 -0.043 -0.050
    3  0.000 -0.001 -0.433 -0.434
    4  0.000 -0.007 -0.043 -0.050
tot    0.000 -0.015 -0.953 -0.968
 
band    37 # energy   10.70576597 # occ.  1.00000000
 
ion      s      p      d    tot
    1  0.000  0.002  0.355  0.357
    2  0.000  0.006  0.123  0.129
    3  0.000  0.002  0.355  0.357
    4  0.000  0.006  0.123  0.129
tot    0.000  0.015  0.956  0.972
    1 -0.000 -0.000  0.000  0.000
    2  0.000  0.000 -0.000 -0.000
    3  0.000  0.000 -0.000  0.000
    4 -0.000 -0.000  0.000  0.000
tot    0.000 -0.000 -0.000  0.000
    1  0.000 -0.000  0.000  0.000
    2 -0.000  0.000 -0.000 -0.000
    3 -0.000  0.000 -0.000 -0.000
    4 -0.000 -0.000  0.000 -0.000
tot   -0.000  0.000 -0.000 -0.000
    1 -0.000 -0.002 -0.354 -0.356
    2 -0.000 -0.006 -0.123 -0.129
    3 -0.000 -0.002 -0.354 -0.356
    4 -0.000 -0.006 -0.123 -0.129
tot   -0.000 -0.015 -0.955 -0.971
 
band    38 # energy   10.70576597 # occ.  1.00000000
 
ion      s      p      d    tot
    1  0.000  0.006  0.123  0.129
    2  0.000  0.002  0.355  0.357
    3  0.000  0.006  0.123  0.129
    4  0.000  0.002  0.355  0.357
tot    0.000  0.015  0.956  0.972
    1 -0.000  0.000  0.000  0.000
    2 -0.000  0.000  0.000  0.000
    3 -0.000 -0.000 -0.000 -0.000
    4  0.000 -0.000 -0.000 -0.000
tot   -0.000 -0.000 -0.000 -0.000
    1  0.000  0.000 -0.000  0.000
    2  0.000 -0.000  0.000  0.000
    3  0.000 -0.000  0.000  0.000
    4 -0.000  0.000 -0.000 -0.000
tot    0.000 -0.000 -0.000  0.000
    1 -0.000 -0.006 -0.123 -0.129
    2 -0.000 -0.002 -0.354 -0.356
    3 -0.000 -0.006 -0.123 -0.129
    4 -0.000 -0.002 -0.354 -0.356
tot   -0.000 -0.015 -0.955 -0.971
 
band    39 # energy   10.90641081 # occ.  1.00000001
 
ion      s      p      d    tot
    1  0.012  0.000  0.420  0.433
    2  0.001  0.000  0.045  0.046
    3  0.012  0.000  0.420  0.433
    4  0.001  0.000  0.045  0.046
tot    0.027  0.000  0.931  0.958
    1  0.000 -0.000  0.000  0.000
    2 -0.000 -0.000 -0.000 -0.000
    3 -0.000  0.000  0.000 -0.000
    4 -0.000 -0.000 -0.000 -0.000
tot   -0.000 -0.000  0.000  0.000
    1  0.000 -0.000 -0.000  0.000
    2  0.000  0.000  0.000  0.000
    3  0.000 -0.000 -0.000  0.000
    4  0.000  0.000  0.000  0.000
tot    0.000  0.000  0.000  0.000