  10  10   1   0
  0.1028161E+02  0.5472400E-09  0.5472397E-09  0.5472398E-09  0.5000000E-15
  1.000000000000000E-004
  CAR 
 Fe2O3                                   
      8.64483033    -17.17880278 1000      3.27749906      1.00000000
    -17.179  0.0000E+00  0.0000E+00  0.0000E+00  0.0000E+00
    -17.153  0.0000E+00  0.0000E+00  0.0000E+00  0.0000E+00
    -17.127  0.0000E+00  0.0000E+00  0.0000E+00  0.0000E+00
    -17.101  0.0000E+00  0.0000E+00  0.0000E+00  0.0000E+00
    -17.075  0.0000E+00  0.0000E+00  0.0000E+00  0.0000E+00
    -17.050  0.0000E+00  0.0000E+00  0.0000E+00  0.0000E+00
    -17.024  0.0000E+00  0.0000E+00  0.0000E+00  0.0000E+00
    -16.998  0.0000E+00  0.0000E+00  0.0000E+00  0.0000E+00
    -16.972  0.0000E+00  0.0000E+00  0.0000E+00  0.0000E+00
    -16.946  0.0000E+00  0.0000E+00  0.0000E+00  0.0000E+00
    -16.920  0.0000E+00  0.0000E+00  0.0000E+00  0.0000E+00
    -16.894  0.0000E+00  0.0000E+00  0.0000E+00  0.0000E+00
    -16.869  0.0000E+00  0.0000E+00  0.0000E+00  0.0000E+00
    -16.843  0.0000E+00  0.0000E+00  0.0000E+00  0.0000E+00
    -16.817  0.0000E+00  0.0000E+00  0.0000E+00  0.0000E+00
    -16.791 -0.3039E-27 -0.3039E-27 -0.7856E-29 -0.7857E-29
    -16.765 -0.2484E-26 -0.2484E-26 -0.7206E-28 -0.7207E-28
    -16.739 -0.1849E-25 -0.1849E-25 -0.5500E-27 -0.5500E-27
    -16.714 -0.1347E-24 -0.1347E-24 -0.4032E-26 -0.4032E-26
    -16.688 -0.9487E-24 -0.9488E-24 -0.2856E-25 -0.2856E-25
    -16.662 -0.6461E-23 -0.6461E-23 -0.1956E-24 -0.1956E-24
    -16.636 -0.4253E-22 -0.4254E-22 -0.1295E-23 -0.1295E-23
    -16.610 -0.2707E-21 -0.2707E-21 -0.8293E-23 -0.8294E-23
    -16.584 -0.1666E-20 -0.1666E-20 -0.5135E-22 -0.5135E-22
    -16.558 -0.9908E-20 -0.9909E-20 -0.3075E-21 -0.3075E-21
    -16.533 -0.5698E-19 -0.5698E-19 -0.1780E-20 -0.1780E-20
    -16.507 -0.3167E-18 -0.3167E-18 -0.9967E-20 -0.9967E-20
    -16.481 -0.1702E-17 -0.1702E-17 -0.5396E-19 -0.5396E-19
    -16.455 -0.8839E-17 -0.8840E-17 -0.2824E-18 -0.2825E-18
    -16.429 -0.4438E-16 -0.4438E-16 -0.1430E-17 -0.1430E-17
    -16.403 -0.2154E-15 -0.2154E-15 -0.6997E-17 -0.6997E-17
    -16.377 -0.1010E-14 -0.1010E-14 -0.3311E-16 -0.3311E-16
    -16.352 -0.4423E-14 -0.4423E-14 -0.1474E-15 -0.1474E-15
    -16.326 -0.1947E-13 -0.1947E-13 -0.6507E-15 -0.6507E-15
    -16.300 -0.8234E-13 -0.8234E-13 -0.2779E-14 -0.2779E-14
    -16.274 -0.3365E-12 -0.3365E-12 -0.1148E-13 -0.1148E-13
    -16.248 -0.1329E-11 -0.1329E-11 -0.4582E-13 -0.4583E-13
    -16.222 -0.5070E-11 -0.5070E-11 -0.1769E-12 -0.1769E-12
    -16.197 -0.1869E-10 -0.1869E-10 -0.6600E-12 -0.6600E-12
    -16.171 -0.6657E-10 -0.6657E-10 -0.2381E-11 -0.2381E-11
    -16.145 -0.2291E-09 -0.2291E-09 -0.8302E-11 -0.8302E-11
    -16.119 -0.7613E-09 -0.7614E-09 -0.2798E-10 -0.2798E-10
    -16.093 -0.2444E-08 -0.2444E-08 -0.9117E-10 -0.9117E-10
    -16.067 -0.7579E-08 -0.7579E-08 -0.2871E-09 -0.2871E-09
    -16.041 -0.2269E-07 -0.2270E-07 -0.8737E-09 -0.8738E-09
    -16.016 -0.6562E-07 -0.6562E-07 -0.2570E-08 -0.2570E-08
    -15.990 -0.1832E-06 -0.1832E-06 -0.7305E-08 -0.7305E-08
    -15.964 -0.4937E-06 -0.4937E-06 -0.2007E-07 -0.2007E-07
    -15.938 -0.1284E-05 -0.1284E-05 -0.5326E-07 -0.5326E-07
    -15.912 -0.3223E-05 -0.3223E-05 -0.1366E-06 -0.1366E-06
    -15.886 -0.7805E-05 -0.7805E-05 -0.3383E-06 -0.3383E-06
    -15.860 -0.1823E-04 -0.1823E-04 -0.8096E-06 -0.8096E-06
    -15.835 -0.4106E-04 -0.4106E-04 -0.1871E-05 -0.1871E-05
    -15.809 -0.8916E-04 -0.8916E-04 -0.4176E-05 -0.4176E-05
    -15.783 -0.1865E-03 -0.1865E-03 -0.8998E-05 -0.8998E-05
    -15.757 -0.3759E-03 -0.3759E-03 -0.1871E-04 -0.1871E-04
    -15.731 -0.7291E-03 -0.7291E-03 -0.3756E-04 -0.3756E-04
    -15.705 -0.1360E-02 -0.1360E-02 -0.7272E-04 -0.7273E-04
    -15.680 -0.2439E-02 -0.2439E-02 -0.1358E-03 -0.1358E-03
    -15.654 -0.4200E-02 -0.4200E-02 -0.2443E-03 -0.2443E-03
    -15.628 -0.6932E-02 -0.6932E-02 -0.4235E-03 -0.4235E-03
    -15.602 -0.1095E-01 -0.1095E-01 -0.7065E-03 -0.7065E-03
    -15.576 -0.1650E-01 -0.1650E-01 -0.1133E-02 -0.1133E-02
    -15.550 -0.2366E-01 -0.2366E-01 -0.1745E-02 -0.1745E-02
    -15.524 -0.3210E-01 -0.3210E-01 -0.2575E-02 -0.2575E-02
    -15.499 -0.4086E-01 -0.4086E-01 -0.3631E-02 -0.3631E-02
    -15.473 -0.4810E-01 -0.4810E-01 -0.4874E-02 -0.4874E-02
    -15.447 -0.5095E-01 -0.5095E-01 -0.6191E-02 -0.6191E-02
    -15.421 -0.4552E-01 -0.4552E-01 -0.7368E-02 -0.7368E-02
    -15.395 -0.2709E-01 -0.2709E-01 -0.8068E-02 -0.8068E-02
    -15.369  0.9211E-02  0.9212E-02 -0.7830E-02 -0.7830E-02
    -15.343  0.6763E-01  0.6763E-01 -0.6082E-02 -0.6082E-02
    -15.318  0.1507E+00  0.1507E+00 -0.2187E-02 -0.2187E-02
    -15.292  0.2582E+00  0.2583E+00  0.4489E-02  0.4489E-02
    -15.266  0.3868E+00  0.3868E+00  0.1449E-01  0.1449E-01
    -15.240  0.5293E+00  0.5293E+00  0.2817E-01  0.2817E-01
    -15.214  0.6760E+00  0.6760E+00  0.4564E-01  0.4564E-01
    -15.188  0.8152E+00  0.8152E+00  0.6671E-01  0.6672E-01
    -15.163  0.9356E+00  0.9356E+00  0.9090E-01  0.9090E-01
    -15.137  0.1028E+01  0.1028E+01  0.1175E+00  0.1175E+00
    -15.111  0.1085E+01  0.1085E+01  0.1455E+00  0.1455E+00
    -15.085  0.1107E+01  0.1107E+01  0.1741E+00  0.1741E+00
    -15.059  0.1095E+01  0.1095E+01  0.2024E+00  0.2024E+00
    -15.033  0.1055E+01  0.1055E+01  0.2297E+00  0.2297E+00
    -15.007  0.9951E+00  0.9951E+00  0.2554E+00  0.2554E+00
    -14.982  0.9245E+00  0.9245E+00  0.2793E+00  0.2793E+00
    -14.956  0.8509E+00  0.8509E+00  0.3013E+00  0.3013E+00
    -14.930  0.7805E+00  0.7805E+00  0.3215E+00  0.3215E+00
    -14.904  0.7170E+00  0.7170E+00  0.3400E+00  0.3400E+00
    -14.878  0.6619E+00  0.6619E+00  0.3571E+00  0.3571E+00
    -14.852  0.6149E+00  0.6149E+00  0.3730E+00  0.3730E+00
    -14.826  0.5742E+00  0.5742E+00  0.3879E+00  0.3879E+00
    -14.801  0.5375E+00  0.5375E+00  0.4018E+00  0.4018E+00
    -14.775  0.5031E+00  0.5031E+00  0.4148E+00  0.4148E+00
    -14.749  0.4698E+00  0.4698E+00  0.4269E+00  0.4269E+00
    -14.723  0.4387E+00  0.4387E+00  0.4383E+00  0.4383E+00
    -14.697  0.4132E+00  0.4132E+00  0.4489E+00  0.4489E+00
    -14.671  0.3994E+00  0.3994E+00  0.4593E+00  0.4593E+00
    -14.646  0.4066E+00  0.4066E+00  0.4698E+00  0.4698E+00
    -14.620  0.4462E+00  0.4462E+00  0.4813E+00  0.4813E+00
    -14.594  0.5307E+00  0.5307E+00  0.4950E+00  0.4950E+00
    -14.568  0.6715E+00  0.6715E+00  0.5124E+00  0.5124E+00
    -14.542  0.8762E+00  0.8762E+00  0.5350E+00  0.5350E+00
    -14.516  0.1146E+01  0.1146E+01  0.5647E+00  0.5647E+00
    -14.490  0.1474E+01  0.1474E+01  0.6028E+00  0.6028E+00
    -14.465  0.1843E+01  0.1843E+01  0.6504E+00  0.6504E+00
    -14.439  0.2227E+01  0.2227E+01  0.7079E+00  0.7080E+00
    -14.413  0.2593E+01  0.2593E+01  0.7750E+00  0.7750E+00
    -14.387  0.2907E+01  0.2907E+01  0.8501E+00  0.8501E+00
    -14.361  0.3135E+01  0.3135E+01  0.9311E+00  0.9312E+00
    -14.335  0.3253E+01  0.3253E+01  0.1015E+01  0.1015E+01
    -14.310  0.3247E+01  0.3247E+01  0.1099E+01  0.1099E+01
    -14.284  0.3116E+01  0.3116E+01  0.1180E+01  0.1180E+01
    -14.258  0.2874E+01  0.2874E+01  0.1254E+01  0.1254E+01
    -14.232  0.2544E+01  0.2544E+01  0.1320E+01  0.1320E+01
    -14.206  0.2158E+01  0.2158E+01  0.1376E+01  0.1376E+01
    -14.180  0.1751E+01  0.1751E+01  0.1421E+01  0.1421E+01
    -14.154  0.1357E+01  0.1357E+01  0.1456E+01  0.1456E+01
    -14.129  0.1005E+01  0.1005E+01  0.1482E+01  0.1482E+01
    -14.103  0.7209E+00  0.7209E+00  0.1500E+01  0.1500E+01
    -14.077  0.5230E+00  0.5230E+00  0.1514E+01  0.1514E+01
    -14.051  0.4271E+00  0.4271E+00  0.1525E+01  0.1525E+01
    -14.025  0.4469E+00  0.4469E+00  0.1537E+01  0.1537E+01
    -13.999  0.5960E+00  0.5960E+00  0.1552E+01  0.1552E+01
    -13.973  0.8896E+00  0.8896E+00  0.1575E+01  0.1575E+01
    -13.948  0.1345E+01  0.1345E+01  0.1610E+01  0.1610E+01
    -13.922  0.1979E+01  0.1979E+01  0.1661E+01  0.1661E+01
    -13.896  0.2807E+01  0.2807E+01  0.1733E+01  0.1733E+01
    -13.870  0.3839E+01  0.3839E+01  0.1833E+01  0.1833E+01
    -13.844  0.5070E+01  0.5070E+01  0.1964E+01  0.1964E+01
    -13.818  0.6477E+01  0.6478E+01  0.2131E+01  0.2131E+01
    -13.793  0.8012E+01  0.8012E+01  0.2338E+01  0.2338E+01
    -13.767  0.9596E+01  0.9596E+01  0.2586E+01  0.2586E+01
    -13.741  0.1113E+02  0.1113E+02  0.2874E+01  0.2874E+01
    -13.715  0.1248E+02  0.1248E+02  0.3197E+01  0.3197E+01
    -13.689  0.1353E+02  0.1353E+02  0.3546E+01  0.3546E+01
    -13.663  0.1416E+02  0.1416E+02  0.3912E+01  0.3912E+01
    -13.637  0.1427E+02  0.1427E+02  0.4281E+01  0.4281E+01
    -13.612  0.1384E+02  0.1384E+02  0.4639E+01  0.4639E+01
    -13.586  0.1289E+02  0.1289E+02  0.4972E+01  0.4972E+01
    -13.560  0.1148E+02  0.1148E+02  0.5269E+01  0.5269E+01
    -13.534  0.9750E+01  0.9750E+01  0.5521E+01  0.5521E+01
    -13.508  0.7850E+01  0.7850E+01  0.5724E+01  0.5724E+01
    -13.482  0.5939E+01  0.5939E+01  0.5877E+01  0.5877E+01
    -13.456  0.4161E+01  0.4161E+01  0.5985E+01  0.5985E+01
    -13.431  0.2624E+01  0.2624E+01  0.6053E+01  0.6053E+01
    -13.405  0.1392E+01  0.1392E+01  0.6089E+01  0.6089E+01
    -13.379  0.4843E+00  0.4843E+00  0.6101E+01  0.6101E+01
    -13.353 -0.1196E+00 -0.1196E+00  0.6098E+01  0.6098E+01
    -13.327 -0.4661E+00 -0.4660E+00  0.6086E+01  0.6086E+01
    -13.301 -0.6155E+00 -0.6155E+00  0.6070E+01  0.6070E+01
    -13.276 -0.6301E+00 -0.6301E+00  0.6054E+01  0.6054E+01
    -13.250 -0.5648E+00 -0.5648E+00  0.6039E+01  0.6039E+01
    -13.224 -0.4627E+00 -0.4627E+00  0.6027E+01  0.6027E+01
    -13.198 -0.3535E+00 -0.3535E+00  0.6018E+01  0.6018E+01
    -13.172 -0.2546E+00 -0.2546E+00  0.6012E+01  0.6012E+01
    -13.146 -0.1741E+00 -0.1741E+00  0.6007E+01  0.6007E+01
    -13.120 -0.1134E+00 -0.1134E+00  0.6004E+01  0.6004E+01
    -13.095 -0.7068E-01 -0.7068E-01  0.6002E+01  0.6002E+01
    -13.069 -0.4220E-01 -0.4220E-01  0.6001E+01  0.6001E+01
    -13.043 -0.2418E-01 -0.2418E-01  0.6001E+01  0.6001E+01
    -13.017 -0.1332E-01 -0.1332E-01  0.6000E+01  0.6000E+01
    -12.991 -0.7052E-02 -0.7052E-02  0.6000E+01  0.6000E+01
    -12.965 -0.3595E-02 -0.3595E-02  0.6000E+01  0.6000E+01
    -12.939 -0.1765E-02 -0.1765E-02  0.6000E+01  0.6000E+01
    -12.914 -0.8347E-03 -0.8347E-03  0.6000E+01  0.6000E+01
    -12.888 -0.3806E-03 -0.3806E-03  0.6000E+01  0.6000E+01
    -12.862 -0.1674E-03 -0.1674E-03  0.6000E+01  0.6000E+01
    -12.836 -0.7098E-04 -0.7098E-04  0.6000E+01  0.6000E+01
    -12.810 -0.2904E-04 -0.2904E-04  0.6000E+01  0.6000E+01
    -12.784 -0.1147E-04 -0.1147E-04  0.6000E+01  0.6000E+01
    -12.759 -0.4371E-05 -0.4371E-05  0.6000E+01  0.6000E+01
    -12.733 -0.1608E-05 -0.1608E-05  0.6000E+01  0.6000E+01
    -12.707 -0.5711E-06 -0.5712E-06  0.6000E+01  0.6000E+01
    -12.681 -0.1959E-06 -0.1959E-06  0.6000E+01  0.6000E+01
    -12.655 -0.6488E-07 -0.6488E-07  0.6000E+01  0.6000E+01
    -12.629 -0.2075E-07 -0.2075E-07  0.6000E+01  0.6000E+01
    -12.603 -0.6411E-08 -0.6412E-08  0.6000E+01  0.6000E+01
    -12.578 -0.1913E-08 -0.1914E-08  0.6000E+01  0.6000E+01
    -12.552 -0.5516E-09 -0.5517E-09  0.6000E+01  0.6000E+01
    -12.526 -0.1536E-09 -0.1537E-09  0.6000E+01  0.6000E+01
    -12.500 -0.4134E-10 -0.4135E-10  0.6000E+01  0.6000E+01
    -12.474 -0.1075E-10 -0.1075E-10  0.6000E+01  0.6000E+01
    -12.448 -0.2702E-11 -0.2702E-11  0.6000E+01  0.6000E+01
    -12.422 -0.6560E-12 -0.6560E-12  0.6000E+01  0.6000E+01
    -12.397 -0.1519E-12 -0.1519E-12  0.6000E+01  0.6000E+01
    -12.371 -0.3613E-13 -0.3613E-13  0.6000E+01  0.6000E+01
    -12.345 -0.9277E-14 -0.9277E-14  0.6000E+01  0.6000E+01
    -12.319  0.0000E+00  0.0000E+00  0.6000E+01  0.6000E+01
    -12.293  0.0000E+00  0.0000E+00  0.6000E+01  0.6000E+01
    -12.267  0.0000E+00  0.0000E+00  0.6000E+01  0.6000E+01
    -12.242  0.0000E+00  0.0000E+00  0.6000E+01  0.6000E+01
    -12.216  0.0000E+00  0.0000E+00  0.6000E+01  0.6000E+01
    -12.190  0.0000E+00  0.0000E+00  0.6000E+01  0.6000E+01
    -12.164  0.0000E+00  0.0000E+00  0.6000E+01  0.6000E+01
    -12.138  0.0000E+00  0.0000E+00  0.6000E+01  0.6000E+01
    -12.112  0.0000E+00  0.0000E+00  0.6000E+01  0.6000E+01
    -12.086  0.0000E+00  0.0000E+00  0.6000E+01  0.6000E+01
    -12.061  0.0000E+00  0.0000E+00  0.6000E+01  0.6000E+01
    -12.035  0.0000E+00  0.0000E+00  0.6000E+01  0.6000E+01
    -12.009  0.0000E+00  0.0000E+00  0.6000E+01  0.6000E+01
    -11.983  0.0000E+00  0.0000E+00  0.6000E+01  0.6000E+01
    -11.957  0.0000E+00  0.0000E+00  0.6000E+01  0.6000E+01
    -11.931  0.0000E+00  0.0000E+00  0.6000E+01  0.6000E+01
    -11.906  0.0000E+00  0.0000E+00  0.6000E+01  0.6000E+01
    -11.880  0.0000E+00  0.0000E+00  0.6000E+01  0.6000E+01
    -11.854  0.0000E+00  0.0000E+00  0.6000E+01  0.6000E+01
    -11.828  0.0000E+00  0.0000E+00  0.6000E+01  0.6000E+01
    -11.802  0.0000E+00  0.0000E+00  0.6000E+01  0.6000E+01
    -11.776  0.0000E+00  0.0000E+00  0.6000E+01  0.6000E+01
    -11.750  0.0000E+00  0.0000E+00  0.6000E+01  0.6000E+01
    -11.725  0.0000E+00  0.0000E+00  0.6000E+01  0.6000E+01
    -11.699  0.0000E+00  0.0000E+00  0.6000E+01  0.6000E+01
    -11.673  0.0000E+00  0.0000E+00  0.6000E+01  0.6000E+01
    -11.647  0.0000E+00  0.0000E+00  0.6000E+01  0.6000E+01
    -11.621  0.0000E+00  0.0000E+00  0.6000E+01  0.6000E+01
    -11.595  0.0000E+00  0.0000E+00  0.6000E+01  0.6000E+01
    -11.569  0.0000E+00  0.0000E+00  0.6000E+01  0.6000E+01
    -11.544  0.0000E+00  0.0000E+00  0.6000E+01  0.6000E+01
    -11.518  0.0000E+00  0.0000E+00  0.6000E+01  0.6000E+01
    -11.492  0.0000E+00  0.0000E+00  0.6000E+01  0.6000E+01
    -11.466  0.0000E+00  0.0000E+00  0.6000E+01  0.6000E+01
    -11.440  0.0000E+00  0.0000E+00  0.6000E+01  0.6000E+01
    -11.414  0.0000E+00  0.0000E+00  0.6000E+01  0.6000E+01
    -11.389  0.0000E+00  0.0000E+00  0.6000E+01  0.6000E+01
    -11.363  0.0000E+00  0.0000E+00  0.6000E+01  0.6000E+01
    -11.337  0.0000E+00  0.0000E+00  0.6000E+01  0.6000E+01
    -11.311  0.0000E+00  0.0000E+00  0.6000E+01  0.6000E+01
    -11.285  0.0000E+00  0.0000E+00  0.6000E+01  0.6000E+01
    -11.259  0.0000E+00  0.0000E+00  0.6000E+01  0.6000E+01
    -11.233  0.0000E+00  0.0000E+00  0.6000E+01  0.6000E+01
    -11.208  0.0000E+00  0.0000E+00  0.6000E+01  0.6000E+01
    -11.182  0.0000E+00  0.0000E+00  0.6000E+01  0.6000E+01
    -11.156  0.0000E+00  0.0000E+00  0.6000E+01  0.6000E+01
    -11.130  0.0000E+00  0.0000E+00  0.6000E+01  0.6000E+01
    -11.104  0.0000E+00  0.0000E+00  0.6000E+01  0.6000E+01
    -11.078  0.0000E+00  0.0000E+00  0.6000E+01  0.6000E+01
    -11.052  0.0000E+00  0.0000E+00  0.6000E+01  0.6000E+01
    -11.027  0.0000E+00  0.0000E+00  0.6000E+01  0.6000E+01
    -11.001  0.0000E+00  0.0000E+00  0.6000E+01  0.6000E+01
    -10.975  0.0000E+00  0.0000E+00  0.6000E+01  0.6000E+01
    -10.949  0.0000E+00  0.0000E+00  0.6000E+01  0.6000E+01
    -10.923  0.0000E+00  0.0000E+00  0.6000E+01  0.6000E+01
    -10.897  0.0000E+00  0.0000E+00  0.6000E+01  0.6000E+01
    -10.872  0.0000E+00  0.0000E+00  0.6000E+01  0.6000E+01
    -10.846  0.0000E+00  0.0000E+00  0.6000E+01  0.6000E+01
    -10.820  0.0000E+00  0.0000E+00  0.6000E+01  0.6000E+01
    -10.794  0.0000E+00  0.0000E+00  0.6000E+01  0.6000E+01
    -10.768  0.0000E+00  0.0000E+00  0.6000E+01  0.6000E+01
    -10.742  0.0000E+00  0.0000E+00  0.6000E+01  0.6000E+01
    -10.716  0.0000E+00  0.0000E+00  0.6000E+01  0.6000E+01
    -10.691  0.0000E+00  0.0000E+00  0.6000E+01  0.6000E+01
    -10.665  0.0000E+00  0.0000E+00  0.6000E+01  0.6000E+01
    -10.639  0.0000E+00  0.0000E+00  0.6000E+01  0.6000E+01
    -10.613  0.0000E+00  0.0000E+00  0.6000E+01  0.6000E+01
    -10.587  0.0000E+00  0.0000E+00  0.6000E+01  0.6000E+01
    -10.561  0.0000E+00  0.0000E+00  0.6000E+01  0.6000E+01
    -10.535  0.0000E+00  0.0000E+00  0.6000E+01  0.6000E+01
    -10.510  0.0000E+00  0.0000E+00  0.6000E+01  0.6000E+01
    -10.484  0.0000E+00  0.0000E+00  0.6000E+01  0.6000E+01
    -10.458  0.0000E+00  0.0000E+00  0.6000E+01  0.6000E+01
    -10.432  0.0000E+00  0.0000E+00  0.6000E+01  0.6000E+01
    -10.406  0.0000E+00  0.0000E+00  0.6000E+01  0.6000E+01
    -10.380  0.0000E+00  0.0000E+00  0.6000E+01  0.6000E+01
    -10.355  0.0000E+00  0.0000E+00  0.6000E+01  0.6000E+01
    -10.329  0.0000E+00  0.0000E+00  0.6000E+01  0.6000E+01
    -10.303  0.0000E+00  0.0000E+00  0.6000E+01  0.6000E+01
    -10.277  0.0000E+00  0.0000E+00  0.6000E+01  0.6000E+01
    -10.251  0.0000E+00  0.0000E+00  0.6000E+01  0.6000E+01
    -10.225  0.0000E+00  0.0000E+00  0.6000E+01  0.6000E+01
    -10.199  0.0000E+00  0.0000E+00  0.6000E+01  0.6000E+01
    -10.174  0.0000E+00  0.0000E+00  0.6000E+01  0.6000E+01
    -10.148  0.0000E+00  0.0000E+00  0.6000E+01  0.6000E+01
    -10.122  0.0000E+00  0.0000E+00  0.6000E+01  0.6000E+01
    -10.096  0.0000E+00  0.0000E+00  0.6000E+01  0.6000E+01
    -10.070  0.0000E+00  0.0000E+00  0.6000E+01  0.6000E+01
    -10.044  0.0000E+00  0.0000E+00  0.6000E+01  0.6000E+01
    -10.018  0.0000E+00  0.0000E+00  0.6000E+01  0.6000E+01
     -9.993  0.0000E+00  0.0000E+00  0.6000E+01  0.6000E+01
     -9.967  0.0000E+00  0.0000E+00  0.6000E+01  0.6000E+01
     -9.941  0.0000E+00  0.0000E+00  0.6000E+01  0.6000E+01
     -9.915  0.0000E+00  0.0000E+00  0.6000E+01  0.6000E+01
     -9.889  0.0000E+00  0.0000E+00  0.6000E+01  0.6000E+01
     -9.863  0.0000E+00  0.0000E+00  0.6000E+01  0.6000E+01
     -9.838  0.0000E+00  0.0000E+00  0.6000E+01  0.6000E+01
     -9.812  0.0000E+00  0.0000E+00  0.6000E+01  0.6000E+01
     -9.786  0.0000E+00  0.0000E+00  0.6000E+01  0.6000E+01
     -9.760  0.0000E+00  0.0000E+00  0.6000E+01  0.6000E+01
     -9.734  0.0000E+00  0.0000E+00  0.6000E+01  0.6000E+01
     -9.708  0.0000E+00  0.0000E+00  0.6000E+01  0.6000E+01
     -9.682  0.0000E+00  0.0000E+00  0.6000E+01  0.6000E+01
     -9.657  0.0000E+00  0.0000E+00  0.6000E+01  0.6000E+01
     -9.631  0.0000E+00  0.0000E+00  0.6000E+01  0.6000E+01
     -9.605  0.0000E+00  0.0000E+00  0.6000E+01  0.6000E+01
     -9.579  0.0000E+00  0.0000E+00  0.6000E+01  0.6000E+01
     -9.553  0.0000E+00  0.0000E+00  0.6000E+01  0.6000E+01
     -9.527  0.0000E+00  0.0000E+00  0.6000E+01  0.6000E+01
     -9.502  0.0000E+00  0.0000E+00  0.6000E+01  0.6000E+01
     -9.476  0.0000E+00  0.0000E+00  0.6000E+01  0.6000E+01
     -9.450  0.0000E+00  0.0000E+00  0.6000E+01  0.6000E+01
     -9.424  0.0000E+00  0.0000E+00  0.6000E+01  0.6000E+01
     -9.398  0.0000E+00  0.0000E+00  0.6000E+01  0.6000E+01
     -9.372  0.0000E+00  0.0000E+00  0.6000E+01  0.6000E+01
     -9.346  0.0000E+00  0.0000E+00  0.6000E+01  0.6000E+01
     -9.321  0.0000E+00  0.0000E+00  0.6000E+01  0.6000E+01
     -9.295  0.0000E+00  0.0000E+00  0.6000E+01  0.6000E+01
     -9.269  0.0000E+00  0.0000E+00  0.6000E+01  0.6000E+01
     -9.243  0.0000E+00  0.0000E+00  0.6000E+01  0.6000E+01
     -9.217  0.0000E+00  0.0000E+00  0.6000E+01  0.6000E+01
     -9.191  0.0000E+00  0.0000E+00  0.6000E+01  0.6000E+01
     -9.165  0.0000E+00  0.0000E+00  0.6000E+01  0.6000E+01
     -9.140  0.0000E+00  0.0000E+00  0.6000E+01  0.6000E+01
     -9.114  0.0000E+00  0.0000E+00  0.6000E+01  0.6000E+01
     -9.088  0.0000E+00  0.0000E+00  0.6000E+01  0.6000E+01
     -9.062  0.0000E+00  0.0000E+00  0.6000E+01  0.6000E+01
     -9.036  0.0000E+00  0.0000E+00  0.6000E+01  0.6000E+01
     -9.010  0.0000E+00  0.0000E+00  0.6000E+01  0.6000E+01
     -8.985  0.0000E+00  0.0000E+00  0.6000E+01  0.6000E+01
     -8.959  0.0000E+00  0.0000E+00  0.6000E+01  0.6000E+01
     -8.933  0.0000E+00  0.0000E+00  0.6000E+01  0.6000E+01
     -8.907  0.0000E+00  0.0000E+00  0.6000E+01  0.6000E+01
     -8.881  0.0000E+00  0.0000E+00  0.6000E+01  0.6000E+01
     -8.855  0.0000E+00  0.0000E+00  0.6000E+01  0.6000E+01
     -8.829  0.0000E+00  0.0000E+00  0.6000E+01  0.6000E+01
     -8.804  0.0000E+00  0.0000E+00  0.6000E+01  0.6000E+01
     -8.778  0.0000E+00  0.0000E+00  0.6000E+01  0.6000E+01
     -8.752  0.0000E+00  0.0000E+00  0.6000E+01  0.6000E+01
     -8.726  0.0000E+00  0.0000E+00  0.6000E+01  0.6000E+01
     -8.700  0.0000E+00  0.0000E+00  0.6000E+01  0.6000E+01
     -8.674  0.0000E+00  0.0000E+00  0.6000E+01  0.6000E+01
     -8.648  0.0000E+00  0.0000E+00  0.6000E+01  0.6000E+01
     -8.623  0.0000E+00  0.0000E+00  0.6000E+01  0.6000E+01
     -8.597  0.0000E+00  0.0000E+00  0.6000E+01  0.6000E+01
     -8.571  0.0000E+00  0.0000E+00  0.6000E+01  0.6000E+01
     -8.545  0.0000E+00  0.0000E+00  0.6000E+01  0.6000E+01
     -8.519  0.0000E+00  0.0000E+00  0.6000E+01  0.6000E+01
     -8.493  0.0000E+00  0.0000E+00  0.6000E+01  0.6000E+01
     -8.468  0.0000E+00  0.0000E+00  0.6000E+01  0.6000E+01
     -8.442  0.0000E+00  0.0000E+00  0.6000E+01  0.6000E+01
     -8.416  0.0000E+00  0.0000E+00  0.6000E+01  0.6000E+01
     -8.390  0.0000E+00  0.0000E+00  0.6000E+01  0.6000E+01
     -8.364  0.0000E+00  0.0000E+00  0.6000E+01  0.6000E+01
     -8.338  0.0000E+00  0.0000E+00  0.6000E+01  0.6000E+01
     -8.312  0.0000E+00  0.0000E+00  0.6000E+01  0.6000E+01
     -8.287  0.0000E+00  0.0000E+00  0.6000E+01  0.6000E+01
     -8.261  0.0000E+00  0.0000E+00  0.6000E+01  0.6000E+01
     -8.235  0.0000E+00  0.0000E+00  0.6000E+01  0.6000E+01
     -8.209  0.0000E+00  0.0000E+00  0.6000E+01  0.6000E+01
     -8.183  0.0000E+00  0.0000E+00  0.6000E+01  0.6000E+01
     -8.157  0.0000E+00  0.0000E+00  0.6000E+01  0.6000E+01
     -8.131  0.0000E+00  0.0000E+00  0.6000E+01  0.6000E+01
     -8.106  0.0000E+00  0.0000E+00  0.6000E+01  0.6000E+01
     -8.080  0.0000E+00  0.0000E+00  0.6000E+01  0.6000E+01
     -8.054  0.0000E+00  0.0000E+00  0.6000E+01  0.6000E+01
     -8.028  0.0000E+00  0.0000E+00  0.6000E+01  0.6000E+01
     -8.002  0.0000E+00  0.0000E+00  0.6000E+01  0.6000E+01
     -7.976  0.0000E+00  0.0000E+00  0.6000E+01  0.6000E+01
     -7.951  0.0000E+00  0.0000E+00  0.6000E+01  0.6000E+01
     -7.925  0.0000E+00  0.0000E+00  0.6000E+01  0.6000E+01
     -7.899  0.0000E+00  0.0000E+00  0.6000E+01  0.6000E+01
     -7.873  0.0000E+00  0.0000E+00  0.6000E+01  0.6000E+01
     -7.847  0.0000E+00  0.0000E+00  0.6000E+01  0.6000E+01
     -7.821  0.0000E+00  0.0000E+00  0.6000E+01  0.6000E+01
     -7.795  0.0000E+00  0.0000E+00  0.6000E+01  0.6000E+01
     -7.770  0.0000E+00  0.0000E+00  0.6000E+01  0.6000E+01
     -7.744  0.0000E+00  0.0000E+00  0.6000E+01  0.6000E+01
     -7.718  0.0000E+00  0.0000E+00  0.6000E+01  0.6000E+01
     -7.692  0.0000E+00  0.0000E+00  0.6000E+01  0.6000E+01
     -7.666  0.0000E+00  0.0000E+00  0.6000E+01  0.6000E+01
     -7.640  0.0000E+00  0.0000E+00  0.6000E+01  0.6000E+01
     -7.614  0.0000E+00  0.0000E+00  0.6000E+01  0.6000E+01
     -7.589  0.0000E+00  0.0000E+00  0.6000E+01  0.6000E+01
     -7.563  0.0000E+00  0.0000E+00  0.6000E+01  0.6000E+01
     -7.537  0.0000E+00  0.0000E+00  0.6000E+01  0.6000E+01
     -7.511  0.0000E+00  0.0000E+00  0.6000E+01  0.6000E+01
     -7.485  0.0000E+00  0.0000E+00  0.6000E+01  0.6000E+01
     -7.459  0.0000E+00  0.0000E+00  0.6000E+01  0.6000E+01
     -7.434  0.0000E+00  0.0000E+00  0.6000E+01  0.6000E+01
     -7.408  0.0000E+00  0.0000E+00  0.6000E+01  0.6000E+01
     -7.382  0.0000E+00  0.0000E+00  0.6000E+01  0.6000E+01
     -7.356  0.0000E+00  0.0000E+00  0.6000E+01  0.6000E+01
     -7.330  0.0000E+00  0.0000E+00  0.6000E+01  0.6000E+01
     -7.304  0.0000E+00  0.0000E+00  0.6000E+01  0.6000E+01
     -7.278  0.0000E+00  0.0000E+00  0.6000E+01  0.6000E+01
     -7.253  0.0000E+00  0.0000E+00  0.6000E+01  0.6000E+01
     -7.227  0.0000E+00  0.0000E+00  0.6000E+01  0.6000E+01
     -7.201  0.0000E+00  0.0000E+00  0.6000E+01  0.6000E+01
     -7.175  0.0000E+00  0.0000E+00  0.6000E+01  0.6000E+01
     -7.149  0.0000E+00  0.0000E+00  0.6000E+01  0.6000E+01
     -7.123  0.0000E+00  0.0000E+00  0.6000E+01  0.6000E+01
     -7.098  0.0000E+00  0.0000E+00  0.6000E+01  0.6000E+01
     -7.072  0.0000E+00  0.0000E+00  0.6000E+01  0.6000E+01
     -7.046  0.0000E+00  0.0000E+00  0.6000E+01  0.6000E+01
     -7.020  0.0000E+00  0.0000E+00  0.6000E+01  0.6000E+01
     -6.994  0.0000E+00  0.0000E+00  0.6000E+01  0.6000E+01
     -6.968  0.0000E+00  0.0000E+00  0.6000E+01  0.6000E+01
     -6.942  0.0000E+00  0.0000E+00  0.6000E+01  0.6000E+01
     -6.917  0.0000E+00  0.0000E+00  0.6000E+01  0.6000E+01
     -6.891  0.0000E+00  0.0000E+00  0.6000E+01  0.6000E+01
     -6.865  0.0000E+00  0.0000E+00  0.6000E+01  0.6000E+01
     -6.839  0.0000E+00  0.0000E+00  0.6000E+01  0.6000E+01
     -6.813  0.0000E+00  0.0000E+00  0.6000E+01  0.6000E+01
     -6.787  0.0000E+00  0.0000E+00  0.6000E+01  0.6000E+01
     -6.761  0.0000E+00  0.0000E+00  0.6000E+01  0.6000E+01
     -6.736  0.0000E+00  0.0000E+00  0.6000E+01  0.6000E+01
     -6.710  0.0000E+00  0.0000E+00  0.6000E+01  0.6000E+01
     -6.684  0.0000E+00  0.0000E+00  0.6000E+01  0.6000E+01
     -6.658  0.0000E+00  0.0000E+00  0.6000E+01  0.6000E+01
     -6.632  0.0000E+00  0.0000E+00  0.6000E+01  0.6000E+01
     -6.606  0.0000E+00  0.0000E+00  0.6000E+01  0.6000E+01
     -6.581  0.0000E+00  0.0000E+00  0.6000E+01  0.6000E+01
     -6.555  0.0000E+00  0.0000E+00  0.6000E+01  0.6000E+01
     -6.529  0.0000E+00  0.0000E+00  0.6000E+01  0.6000E+01
     -6.503  0.0000E+00  0.0000E+00  0.6000E+01  0.6000E+01
     -6.477  0.0000E+00  0.0000E+00  0.6000E+01  0.6000E+01
     -6.451  0.0000E+00  0.0000E+00  0.6000E+01  0.6000E+01
     -6.425  0.0000E+00  0.0000E+00  0.6000E+01  0.6000E+01
     -6.400  0.0000E+00  0.0000E+00  0.6000E+01  0.6000E+01
     -6.374  0.0000E+00  0.0000E+00  0.6000E+01  0.6000E+01
     -6.348  0.0000E+00  0.0000E+00  0.6000E+01  0.6000E+01
     -6.322  0.0000E+00  0.0000E+00  0.6000E+01  0.6000E+01
     -6.296  0.0000E+00  0.0000E+00  0.6000E+01  0.6000E+01
     -6.270  0.0000E+00  0.0000E+00  0.6000E+01  0.6000E+01
     -6.244  0.0000E+00  0.0000E+00  0.6000E+01  0.6000E+01
     -6.219  0.0000E+00  0.0000E+00  0.6000E+01  0.6000E+01
     -6.193  0.0000E+00  0.0000E+00  0.6000E+01  0.6000E+01
     -6.167  0.0000E+00  0.0000E+00  0.6000E+01  0.6000E+01
     -6.141  0.0000E+00  0.0000E+00  0.6000E+01  0.6000E+01
     -6.115  0.0000E+00  0.0000E+00  0.6000E+01  0.6000E+01
     -6.089  0.0000E+00  0.0000E+00  0.6000E+01  0.6000E+01
     -6.064  0.0000E+00  0.0000E+00  0.6000E+01  0.6000E+01
     -6.038  0.0000E+00  0.0000E+00  0.6000E+01  0.6000E+01
     -6.012  0.0000E+00  0.0000E+00  0.6000E+01  0.6000E+01
     -5.986  0.0000E+00  0.0000E+00  0.6000E+01  0.6000E+01
     -5.960  0.0000E+00  0.0000E+00  0.6000E+01  0.6000E+01
     -5.934  0.0000E+00  0.0000E+00  0.6000E+01  0.6000E+01
     -5.908  0.0000E+00  0.0000E+00  0.6000E+01  0.6000E+01
     -5.883  0.0000E+00  0.0000E+00  0.6000E+01  0.6000E+01
     -5.857  0.0000E+00  0.0000E+00  0.6000E+01  0.6000E+01
     -5.831  0.0000E+00  0.0000E+00  0.6000E+01  0.6000E+01
     -5.805  0.0000E+00  0.0000E+00  0.6000E+01  0.6000E+01
     -5.779  0.0000E+00  0.0000E+00  0.6000E+01  0.6000E+01
     -5.753  0.0000E+00  0.0000E+00  0.6000E+01  0.6000E+01
     -5.727  0.0000E+00  0.0000E+00  0.6000E+01  0.6000E+01
     -5.702  0.0000E+00  0.0000E+00  0.6000E+01  0.6000E+01
     -5.676  0.0000E+00  0.0000E+00  0.6000E+01  0.6000E+01
     -5.650  0.0000E+00  0.0000E+00  0.6000E+01  0.6000E+01
     -5.624  0.0000E+00  0.0000E+00  0.6000E+01  0.6000E+01
     -5.598  0.0000E+00  0.0000E+00  0.6000E+01  0.6000E+01
     -5.572  0.0000E+00  0.0000E+00  0.6000E+01  0.6000E+01
     -5.547  0.0000E+00  0.0000E+00  0.6000E+01  0.6000E+01
     -5.521 -0.4949E-28 -0.4964E-28  0.6000E+01  0.6000E+01
     -5.495 -0.6403E-27 -0.6423E-27  0.6000E+01  0.6000E+01
     -5.469 -0.5042E-26 -0.5058E-26  0.6000E+01  0.6000E+01
     -5.443 -0.3717E-25 -0.3729E-25  0.6000E+01  0.6000E+01
     -5.417 -0.2664E-24 -0.2672E-24  0.6000E+01  0.6000E+01
     -5.391 -0.1846E-23 -0.1851E-23  0.6000E+01  0.6000E+01
     -5.366 -0.1237E-22 -0.1241E-22  0.6000E+01  0.6000E+01
     -5.340 -0.8019E-22 -0.8042E-22  0.6000E+01  0.6000E+01
     -5.314 -0.5027E-21 -0.5041E-21  0.6000E+01  0.6000E+01
     -5.288 -0.3047E-20 -0.3056E-20  0.6000E+01  0.6000E+01
     -5.262 -0.1786E-19 -0.1791E-19  0.6000E+01  0.6000E+01
     -5.236 -0.1013E-18 -0.1015E-18  0.6000E+01  0.6000E+01
     -5.210 -0.5552E-18 -0.5567E-18  0.6000E+01  0.6000E+01
     -5.185 -0.2944E-17 -0.2951E-17  0.6000E+01  0.6000E+01
     -5.159 -0.1509E-16 -0.1513E-16  0.6000E+01  0.6000E+01
     -5.133 -0.7481E-16 -0.7499E-16  0.6000E+01  0.6000E+01
     -5.107 -0.3586E-15 -0.3595E-15  0.6000E+01  0.6000E+01
     -5.081 -0.1633E-14 -0.1637E-14  0.6000E+01  0.6000E+01
     -5.055 -0.7205E-14 -0.7222E-14  0.6000E+01  0.6000E+01
     -5.030 -0.3136E-13 -0.3143E-13  0.6000E+01  0.6000E+01
     -5.004 -0.1309E-12 -0.1312E-12  0.6000E+01  0.6000E+01
     -4.978 -0.5294E-12 -0.5305E-12  0.6000E+01  0.6000E+01
     -4.952 -0.2070E-11 -0.2074E-11  0.6000E+01  0.6000E+01
     -4.926 -0.7820E-11 -0.7836E-11  0.6000E+01  0.6000E+01
     -4.900 -0.2856E-10 -0.2862E-10  0.6000E+01  0.6000E+01
     -4.874 -0.1008E-09 -0.1010E-09  0.6000E+01  0.6000E+01
     -4.849 -0.3440E-09 -0.3446E-09  0.6000E+01  0.6000E+01
     -4.823 -0.1134E-08 -0.1136E-08  0.6000E+01  0.6000E+01
     -4.797 -0.3613E-08 -0.3619E-08  0.6000E+01  0.6000E+01
     -4.771 -0.1112E-07 -0.1114E-07  0.6000E+01  0.6000E+01
     -4.745 -0.3308E-07 -0.3313E-07  0.6000E+01  0.6000E+01
     -4.719 -0.9503E-07 -0.9518E-07  0.6000E+01  0.6000E+01
     -4.694 -0.2637E-06 -0.2641E-06  0.6000E+01  0.6000E+01
     -4.668 -0.7070E-06 -0.7080E-06  0.6000E+01  0.6000E+01
     -4.642 -0.1830E-05 -0.1833E-05  0.6000E+01  0.6000E+01
     -4.616 -0.4575E-05 -0.4581E-05  0.6000E+01  0.6000E+01
     -4.590 -0.1104E-04 -0.1106E-04  0.6000E+01  0.6000E+01
     -4.564 -0.2572E-04 -0.2575E-04  0.6000E+01  0.6000E+01
     -4.538 -0.5783E-04 -0.5790E-04  0.6000E+01  0.6000E+01
     -4.513 -0.1255E-03 -0.1256E-03  0.6000E+01  0.6000E+01
     -4.487 -0.2626E-03 -0.2629E-03  0.6000E+01  0.6000E+01
     -4.461 -0.5300E-03 -0.5305E-03  0.6000E+01  0.6000E+01
     -4.435 -0.1031E-02 -0.1032E-02  0.6000E+01  0.6000E+01
     -4.409 -0.1935E-02 -0.1936E-02  0.6000E+01  0.6000E+01
     -4.383 -0.3496E-02 -0.3499E-02  0.6000E+01  0.6000E+01