  10  10   1   0
  0.1028161E+02  0.5472400E-09  0.5472397E-09  0.5472398E-09  0.5000000E-15
  1.000000000000000E-004
  CAR 
 Fe2O3                                   
      8.64484657    -17.17879179  301      3.27750845      1.00000000
    -17.179  0.0000E+00  0.0000E+00  0.0000E+00  0.0000E+00
    -17.093  0.0000E+00  0.0000E+00  0.0000E+00  0.0000E+00
    -17.007  0.0000E+00  0.0000E+00  0.0000E+00  0.0000E+00
    -16.921  0.0000E+00  0.0000E+00  0.0000E+00  0.0000E+00
    -16.834 -0.3075E-29 -0.3075E-29 -0.2647E-30 -0.2647E-30
    -16.748 -0.3158E-26 -0.3158E-26 -0.2721E-27 -0.2721E-27
    -16.662 -0.2184E-23 -0.2184E-23 -0.1882E-24 -0.1883E-24
    -16.576 -0.1041E-20 -0.1041E-20 -0.8976E-22 -0.8976E-22
    -16.490 -0.3416E-18 -0.3416E-18 -0.2949E-19 -0.2949E-19
    -16.404 -0.7720E-16 -0.7720E-16 -0.6675E-17 -0.6675E-17
    -16.318 -0.1166E-13 -0.1166E-13 -0.1010E-14 -0.1010E-14
    -16.232 -0.1240E-11 -0.1240E-11 -0.1077E-12 -0.1077E-12
    -16.146 -0.9055E-10 -0.9056E-10 -0.7903E-11 -0.7903E-11
    -16.060 -0.4530E-08 -0.4530E-08 -0.3978E-09 -0.3979E-09
    -15.974 -0.1548E-06 -0.1548E-06 -0.1372E-07 -0.1372E-07
    -15.888 -0.3600E-05 -0.3600E-05 -0.3236E-06 -0.3236E-06
    -15.802 -0.5660E-04 -0.5660E-04 -0.5195E-05 -0.5196E-05
    -15.715 -0.5954E-03 -0.5954E-03 -0.5645E-04 -0.5645E-04
    -15.629 -0.4110E-02 -0.4110E-02 -0.4102E-03 -0.4102E-03
    -15.543 -0.1785E-01 -0.1785E-01 -0.1946E-02 -0.1947E-02
    -15.457 -0.4322E-01 -0.4322E-01 -0.5667E-02 -0.5667E-02
    -15.371 -0.2581E-01 -0.2581E-01 -0.7889E-02 -0.7889E-02
    -15.285  0.1701E+00  0.1701E+00  0.6751E-02  0.6751E-02
    -15.199  0.5915E+00  0.5915E+00  0.5767E-01  0.5767E-01
    -15.113  0.9942E+00  0.9942E+00  0.1432E+00  0.1432E+00
    -15.027  0.1081E+01  0.1081E+01  0.2363E+00  0.2363E+00
    -14.941  0.8938E+00  0.8938E+00  0.3132E+00  0.3132E+00
    -14.855  0.6786E+00  0.6786E+00  0.3716E+00  0.3716E+00
    -14.769  0.5358E+00  0.5358E+00  0.4178E+00  0.4178E+00
    -14.683  0.4307E+00  0.4307E+00  0.4548E+00  0.4548E+00
    -14.596  0.4494E+00  0.4494E+00  0.4935E+00  0.4935E+00
    -14.510  0.9190E+00  0.9190E+00  0.5726E+00  0.5726E+00
    -14.424  0.1995E+01  0.1995E+01  0.7444E+00  0.7444E+00
    -14.338  0.3039E+01  0.3039E+01  0.1006E+01  0.1006E+01
    -14.252  0.3059E+01  0.3059E+01  0.1269E+01  0.1269E+01
    -14.166  0.1999E+01  0.1999E+01  0.1441E+01  0.1441E+01
    -14.080  0.8281E+00  0.8281E+00  0.1513E+01  0.1513E+01
    -13.994  0.5054E+00  0.5054E+00  0.1556E+01  0.1556E+01
    -13.908  0.1638E+01  0.1638E+01  0.1697E+01  0.1697E+01
    -13.822  0.4765E+01  0.4765E+01  0.2107E+01  0.2107E+01
    -13.736  0.9627E+01  0.9627E+01  0.2936E+01  0.2936E+01
    -13.650  0.1362E+02  0.1362E+02  0.4108E+01  0.4108E+01
    -13.563  0.1303E+02  0.1303E+02  0.5230E+01  0.5230E+01
    -13.477  0.7798E+01  0.7798E+01  0.5901E+01  0.5901E+01
    -13.391  0.2283E+01  0.2283E+01  0.6098E+01  0.6098E+01
    -13.305 -0.2902E+00 -0.2901E+00  0.6073E+01  0.6073E+01
    -13.219 -0.5480E+00 -0.5480E+00  0.6026E+01  0.6026E+01
    -13.133 -0.2327E+00 -0.2327E+00  0.6006E+01  0.6006E+01
    -13.047 -0.5504E-01 -0.5504E-01  0.6001E+01  0.6001E+01
    -12.961 -0.8211E-02 -0.8211E-02  0.6000E+01  0.6000E+01
    -12.875 -0.8059E-03 -0.8059E-03  0.6000E+01  0.6000E+01
    -12.789 -0.5301E-04 -0.5301E-04  0.6000E+01  0.6000E+01
    -12.703 -0.2361E-05 -0.2361E-05  0.6000E+01  0.6000E+01
    -12.617 -0.7158E-07 -0.7159E-07  0.6000E+01  0.6000E+01
    -12.531 -0.1483E-08 -0.1483E-08  0.6000E+01  0.6000E+01
    -12.444 -0.2105E-10 -0.2105E-10  0.6000E+01  0.6000E+01
    -12.358 -0.2054E-12 -0.2055E-12  0.6000E+01  0.6000E+01
    -12.272 -0.8427E-15 -0.8427E-15  0.6000E+01  0.6000E+01
    -12.186  0.0000E+00  0.0000E+00  0.6000E+01  0.6000E+01
    -12.100  0.0000E+00  0.0000E+00  0.6000E+01  0.6000E+01
    -12.014  0.0000E+00  0.0000E+00  0.6000E+01  0.6000E+01
    -11.928  0.0000E+00  0.0000E+00  0.6000E+01  0.6000E+01
    -11.842  0.0000E+00  0.0000E+00  0.6000E+01  0.6000E+01
    -11.756  0.0000E+00  0.0000E+00  0.6000E+01  0.6000E+01
    -11.670  0.0000E+00  0.0000E+00  0.6000E+01  0.6000E+01
    -11.584  0.0000E+00  0.0000E+00  0.6000E+01  0.6000E+01
    -11.498  0.0000E+00  0.0000E+00  0.6000E+01  0.6000E+01
    -11.412  0.0000E+00  0.0000E+00  0.6000E+01  0.6000E+01
    -11.325  0.0000E+00  0.0000E+00  0.6000E+01  0.6000E+01
    -11.239  0.0000E+00  0.0000E+00  0.6000E+01  0.6000E+01
    -11.153  0.0000E+00  0.0000E+00  0.6000E+01  0.6000E+01
    -11.067  0.0000E+00  0.0000E+00  0.6000E+01  0.6000E+01
    -10.981  0.0000E+00  0.0000E+00  0.6000E+01  0.6000E+01
    -10.895  0.0000E+00  0.0000E+00  0.6000E+01  0.6000E+01
    -10.809  0.0000E+00  0.0000E+00  0.6000E+01  0.6000E+01
    -10.723  0.0000E+00  0.0000E+00  0.6000E+01  0.6000E+01
    -10.637  0.0000E+00  0.0000E+00  0.6000E+01  0.6000E+01
    -10.551  0.0000E+00  0.0000E+00  0.6000E+01  0.6000E+01
    -10.465  0.0000E+00  0.0000E+00  0.6000E+01  0.6000E+01
    -10.379  0.0000E+00  0.0000E+00  0.6000E+01  0.6000E+01
    -10.292  0.0000E+00  0.0000E+00  0.6000E+01  0.6000E+01
    -10.206  0.0000E+00  0.0000E+00  0.6000E+01  0.6000E+01
    -10.120  0.0000E+00  0.0000E+00  0.6000E+01  0.6000E+01
    -10.034  0.0000E+00  0.0000E+00  0.6000E+01  0.6000E+01
     -9.948  0.0000E+00  0.0000E+00  0.6000E+01  0.6000E+01
     -9.862  0.0000E+00  0.0000E+00  0.6000E+01  0.6000E+01
     -9.776  0.0000E+00  0.0000E+00  0.6000E+01  0.6000E+01
     -9.690  0.0000E+00  0.0000E+00  0.6000E+01  0.6000E+01
     -9.604  0.0000E+00  0.0000E+00  0.6000E+01  0.6000E+01
     -9.518  0.0000E+00  0.0000E+00  0.6000E+01  0.6000E+01
     -9.432  0.0000E+00  0.0000E+00  0.6000E+01  0.6000E+01
     -9.346  0.0000E+00  0.0000E+00  0.6000E+01  0.6000E+01
     -9.260  0.0000E+00  0.0000E+00  0.6000E+01  0.6000E+01
     -9.173  0.0000E+00  0.0000E+00  0.6000E+01  0.6000E+01
     -9.087  0.0000E+00  0.0000E+00  0.6000E+01  0.6000E+01
     -9.001  0.0000E+00  0.0000E+00  0.6000E+01  0.6000E+01
     -8.915  0.0000E+00  0.0000E+00  0.6000E+01  0.6000E+01
     -8.829  0.0000E+00  0.0000E+00  0.6000E+01  0.6000E+01
     -8.743  0.0000E+00  0.0000E+00  0.6000E+01  0.6000E+01
     -8.657  0.0000E+00  0.0000E+00  0.6000E+01  0.6000E+01
     -8.571  0.0000E+00  0.0000E+00  0.6000E+01  0.6000E+01
     -8.485  0.0000E+00  0.0000E+00  0.6000E+01  0.6000E+01
     -8.399  0.0000E+00  0.0000E+00  0.6000E+01  0.6000E+01
     -8.313  0.0000E+00  0.0000E+00  0.6000E+01  0.6000E+01
     -8.227  0.0000E+00  0.0000E+00  0.6000E+01  0.6000E+01
     -8.141  0.0000E+00  0.0000E+00  0.6000E+01  0.6000E+01
     -8.054  0.0000E+00  0.0000E+00  0.6000E+01  0.6000E+01
     -7.968  0.0000E+00  0.0000E+00  0.6000E+01  0.6000E+01
     -7.882  0.0000E+00  0.0000E+00  0.6000E+01  0.6000E+01
     -7.796  0.0000E+00  0.0000E+00  0.6000E+01  0.6000E+01
     -7.710  0.0000E+00  0.0000E+00  0.6000E+01  0.6000E+01
     -7.624  0.0000E+00  0.0000E+00  0.6000E+01  0.6000E+01
     -7.538  0.0000E+00  0.0000E+00  0.6000E+01  0.6000E+01
     -7.452  0.0000E+00  0.0000E+00  0.6000E+01  0.6000E+01
     -7.366  0.0000E+00  0.0000E+00  0.6000E+01  0.6000E+01
     -7.280  0.0000E+00  0.0000E+00  0.6000E+01  0.6000E+01
     -7.194  0.0000E+00  0.0000E+00  0.6000E+01  0.6000E+01
     -7.108  0.0000E+00  0.0000E+00  0.6000E+01  0.6000E+01
     -7.021  0.0000E+00  0.0000E+00  0.6000E+01  0.6000E+01
     -6.935  0.0000E+00  0.0000E+00  0.6000E+01  0.6000E+01
     -6.849  0.0000E+00  0.0000E+00  0.6000E+01  0.6000E+01
     -6.763  0.0000E+00  0.0000E+00  0.6000E+01  0.6000E+01
     -6.677  0.0000E+00  0.0000E+00  0.6000E+01  0.6000E+01
     -6.591  0.0000E+00  0.0000E+00  0.6000E+01  0.6000E+01
     -6.505  0.0000E+00  0.0000E+00  0.6000E+01  0.6000E+01
     -6.419  0.0000E+00  0.0000E+00  0.6000E+01  0.6000E+01
     -6.333  0.0000E+00  0.0000E+00  0.6000E+01  0.6000E+01
     -6.247  0.0000E+00  0.0000E+00  0.6000E+01  0.6000E+01
     -6.161  0.0000E+00  0.0000E+00  0.6000E+01  0.6000E+01
     -6.075  0.0000E+00  0.0000E+00  0.6000E+01  0.6000E+01
     -5.989  0.0000E+00  0.0000E+00  0.6000E+01  0.6000E+01
     -5.902  0.0000E+00  0.0000E+00  0.6000E+01  0.6000E+01
     -5.816  0.0000E+00  0.0000E+00  0.6000E+01  0.6000E+01
     -5.730  0.0000E+00  0.0000E+00  0.6000E+01  0.6000E+01
     -5.644  0.0000E+00  0.0000E+00  0.6000E+01  0.6000E+01
     -5.558 -0.1179E-29 -0.1182E-29  0.6000E+01  0.6000E+01
     -5.472 -0.1357E-26 -0.1361E-26  0.6000E+01  0.6000E+01
     -5.386 -0.9677E-24 -0.9700E-24  0.6000E+01  0.6000E+01
     -5.300 -0.4774E-21 -0.4785E-21  0.6000E+01  0.6000E+01
     -5.214 -0.1629E-18 -0.1632E-18  0.6000E+01  0.6000E+01
     -5.128 -0.3843E-16 -0.3851E-16  0.6000E+01  0.6000E+01
     -5.042 -0.6078E-14 -0.6089E-14  0.6000E+01  0.6000E+01
     -4.956 -0.6817E-12 -0.6829E-12  0.6000E+01  0.6000E+01
     -4.870 -0.5266E-10 -0.5274E-10  0.6000E+01  0.6000E+01
     -4.783 -0.2800E-08 -0.2804E-08  0.6000E+01  0.6000E+01
     -4.697 -0.1023E-06 -0.1024E-06  0.6000E+01  0.6000E+01
     -4.611 -0.2559E-05 -0.2562E-05  0.6000E+01  0.6000E+01
     -4.525 -0.4368E-04 -0.4372E-04  0.6000E+01  0.6000E+01
     -4.439 -0.5059E-03 -0.5063E-03  0.6000E+01  0.6000E+01
     -4.353 -0.3940E-02 -0.3942E-02  0.6000E+01  0.6000E+01
     -4.267 -0.2032E-01 -0.2034E-01  0.5998E+01  0.5998E+01
     -4.181 -0.6738E-01 -0.6741E-01  0.5992E+01  0.5992E+01
     -4.095 -0.1314E+00 -0.1315E+00  0.5981E+01  0.5981E+01
     -4.009 -0.8439E-01 -0.8433E-01  0.5973E+01  0.5973E+01
     -3.923  0.3499E+00  0.3502E+00  0.6004E+01  0.6004E+01
     -3.837  0.1583E+01  0.1584E+01  0.6140E+01  0.6140E+01
     -3.750  0.4073E+01  0.4075E+01  0.6490E+01  0.6491E+01
     -3.664  0.7588E+01  0.7590E+01  0.7144E+01  0.7144E+01
     -3.578  0.1032E+02  0.1032E+02  0.8032E+01  0.8032E+01
     -3.492  0.1025E+02  0.1025E+02  0.8914E+01  0.8914E+01
     -3.406  0.8054E+01  0.8053E+01  0.9607E+01  0.9607E+01
     -3.320  0.6429E+01  0.6429E+01  0.1016E+02  0.1016E+02
     -3.234  0.6431E+01  0.6431E+01  0.1071E+02  0.1071E+02
     -3.148  0.6974E+01  0.6974E+01  0.1131E+02  0.1131E+02
     -3.062  0.7301E+01  0.7302E+01  0.1194E+02  0.1194E+02
     -2.976  0.7649E+01  0.7649E+01  0.1260E+02  0.1260E+02
     -2.890  0.8140E+01  0.8140E+01  0.1330E+02  0.1330E+02
     -2.804  0.8233E+01  0.8233E+01  0.1401E+02  0.1401E+02
     -2.718  0.7260E+01  0.7259E+01  0.1464E+02  0.1464E+02
     -2.631  0.5369E+01  0.5368E+01  0.1510E+02  0.1510E+02
     -2.545  0.3608E+01  0.3607E+01  0.1541E+02  0.1541E+02
     -2.459  0.2742E+01  0.2742E+01  0.1564E+02  0.1564E+02
     -2.373  0.2302E+01  0.2302E+01  0.1584E+02  0.1584E+02
     -2.287  0.1503E+01  0.1503E+01  0.1597E+02  0.1597E+02
     -2.201  0.5222E+00  0.5217E+00  0.1602E+02  0.1602E+02
     -2.115 -0.5714E-01 -0.5730E-01  0.1601E+02  0.1601E+02
     -2.029 -0.2011E+00 -0.2011E+00  0.1599E+02  0.1599E+02
     -1.943 -0.1125E+00 -0.1124E+00  0.1598E+02  0.1598E+02
     -1.857  0.3021E+00  0.3022E+00  0.1601E+02  0.1601E+02
     -1.771  0.1126E+01  0.1126E+01  0.1611E+02  0.1611E+02
     -1.685  0.1966E+01  0.1966E+01  0.1628E+02  0.1628E+02
     -1.599  0.2444E+01  0.2444E+01  0.1649E+02  0.1649E+02
     -1.512  0.2802E+01  0.2802E+01  0.1673E+02  0.1673E+02
     -1.426  0.3298E+01  0.3298E+01  0.1701E+02  0.1701E+02
     -1.340  0.3681E+01  0.3681E+01  0.1733E+02  0.1733E+02
     -1.254  0.3762E+01  0.3762E+01  0.1765E+02  0.1765E+02
     -1.168  0.3553E+01  0.3553E+01  0.1796E+02  0.1796E+02
     -1.082  0.3044E+01  0.3044E+01  0.1822E+02  0.1822E+02
     -0.996  0.2522E+01  0.2522E+01  0.1844E+02  0.1844E+02
     -0.910  0.2330E+01  0.2330E+01  0.1864E+02  0.1864E+02
     -0.824  0.2349E+01  0.2349E+01  0.1884E+02  0.1884E+02
     -0.738  0.2392E+01  0.2392E+01  0.1905E+02  0.1905E+02
     -0.652  0.2566E+01  0.2566E+01  0.1927E+02  0.1927E+02
     -0.566  0.2836E+01  0.2836E+01  0.1951E+02  0.1951E+02
     -0.480  0.2877E+01  0.2877E+01  0.1976E+02  0.1976E+02
     -0.393  0.2674E+01  0.2674E+01  0.1999E+02  0.1999E+02
     -0.307  0.2702E+01  0.2702E+01  0.2022E+02  0.2022E+02
     -0.221  0.3069E+01  0.3069E+01  0.2049E+02  0.2049E+02
     -0.135  0.3175E+01  0.3175E+01  0.2076E+02  0.2076E+02
     -0.049  0.2851E+01  0.2851E+01  0.2100E+02  0.2100E+02
      0.037  0.2818E+01  0.2818E+01  0.2125E+02  0.2125E+02
      0.123  0.3496E+01  0.3496E+01  0.2155E+02  0.2155E+02
      0.209  0.4401E+01  0.4401E+01  0.2193E+02  0.2193E+02
      0.295  0.4667E+01  0.4667E+01  0.2233E+02  0.2233E+02
      0.381  0.3961E+01  0.3961E+01  0.2267E+02  0.2267E+02
      0.467  0.3271E+01  0.3271E+01  0.2295E+02  0.2295E+02
      0.553  0.3888E+01  0.3888E+01  0.2329E+02  0.2329E+02
      0.640  0.5386E+01  0.5386E+01  0.2375E+02  0.2375E+02
      0.726  0.6089E+01  0.6089E+01  0.2427E+02  0.2427E+02
      0.812  0.5475E+01  0.5475E+01  0.2475E+02  0.2475E+02
      0.898  0.4516E+01  0.4515E+01  0.2513E+02  0.2513E+02
      0.984  0.4004E+01  0.4004E+01  0.2548E+02  0.2548E+02
      1.070  0.3800E+01  0.3800E+01  0.2581E+02  0.2581E+02
      1.156  0.3478E+01  0.3478E+01  0.2610E+02  0.2610E+02
      1.242  0.3061E+01  0.3061E+01  0.2637E+02  0.2637E+02
      1.328  0.2877E+01  0.2877E+01  0.2662E+02  0.2662E+02
      1.414  0.3223E+01  0.3223E+01  0.2689E+02  0.2689E+02
      1.500  0.4236E+01  0.4236E+01  0.2726E+02  0.2726E+02
      1.586  0.5317E+01  0.5317E+01  0.2772E+02  0.2772E+02
      1.672  0.5272E+01  0.5272E+01  0.2817E+02  0.2817E+02
      1.759  0.3915E+01  0.3915E+01  0.2851E+02  0.2851E+02
      1.845  0.2474E+01  0.2474E+01  0.2872E+02  0.2872E+02
      1.931  0.1940E+01  0.1940E+01  0.2889E+02  0.2889E+02
      2.017  0.2156E+01  0.2156E+01  0.2907E+02  0.2907E+02
      2.103  0.2531E+01  0.2531E+01  0.2929E+02  0.2929E+02
      2.189  0.2805E+01  0.2805E+01  0.2953E+02  0.2953E+02
      2.275  0.3265E+01  0.3265E+01  0.2981E+02  0.2981E+02
      2.361  0.4345E+01  0.4345E+01  0.3019E+02  0.3019E+02
      2.447  0.5695E+01  0.5695E+01  0.3068E+02  0.3068E+02
      2.533  0.6151E+01  0.6151E+01  0.3121E+02  0.3121E+02
      2.619  0.5184E+01  0.5184E+01  0.3165E+02  0.3165E+02
      2.705  0.3780E+01  0.3780E+01  0.3198E+02  0.3198E+02
      2.791  0.3185E+01  0.3185E+01  0.3225E+02  0.3225E+02
      2.878  0.3506E+01  0.3506E+01  0.3255E+02  0.3255E+02
      2.964  0.4160E+01  0.4160E+01  0.3291E+02  0.3291E+02
      3.050  0.4610E+01  0.4610E+01  0.3331E+02  0.3331E+02
      3.136  0.4265E+01  0.4265E+01  0.3368E+02  0.3368E+02
      3.222  0.2864E+01  0.2864E+01  0.3392E+02  0.3392E+02
      3.308  0.1139E+01  0.1139E+01  0.3402E+02  0.3402E+02
      3.394  0.8162E-01  0.8156E-01  0.3403E+02  0.3403E+02
      3.480 -0.1745E+00 -0.1745E+00  0.3401E+02  0.3401E+02
      3.566 -0.1039E+00 -0.1039E+00  0.3400E+02  0.3400E+02
      3.652 -0.3079E-01 -0.3079E-01  0.3400E+02  0.3400E+02
      3.738 -0.5611E-02 -0.5610E-02  0.3400E+02  0.3400E+02
      3.824 -0.6672E-03 -0.6671E-03  0.3400E+02  0.3400E+02
      3.911 -0.5308E-04 -0.5307E-04  0.3400E+02  0.3400E+02
      3.997 -0.2861E-05 -0.2860E-05  0.3400E+02  0.3400E+02
      4.083 -0.1052E-06 -0.1052E-06  0.3400E+02  0.3400E+02
      4.169 -0.2650E-08 -0.2649E-08  0.3400E+02  0.3400E+02
      4.255 -0.4585E-10 -0.4583E-10  0.3400E+02  0.3400E+02
      4.341 -0.6601E-12 -0.6597E-12  0.3400E+02  0.3400E+02
      4.427 -0.1144E-10 -0.1141E-10  0.3400E+02  0.3400E+02
      4.513 -0.7847E-09 -0.7832E-09  0.3400E+02  0.3400E+02
      4.599 -0.3689E-07 -0.3683E-07  0.3400E+02  0.3400E+02
      4.685 -0.1186E-05 -0.1184E-05  0.3400E+02  0.3400E+02
      4.771 -0.2595E-04 -0.2591E-04  0.3400E+02  0.3400E+02
      4.857 -0.3846E-03 -0.3841E-03  0.3400E+02  0.3400E+02
      4.943 -0.3825E-02 -0.3821E-02  0.3400E+02  0.3400E+02
      5.030 -0.2508E-01 -0.2506E-01  0.3400E+02  0.3400E+02
      5.116 -0.1043E+00 -0.1042E+00  0.3399E+02  0.3399E+02
      5.202 -0.2457E+00 -0.2456E+00  0.3397E+02  0.3397E+02
      5.288 -0.1556E+00 -0.1558E+00  0.3395E+02  0.3395E+02
      5.374  0.8971E+00  0.8963E+00  0.3403E+02  0.3403E+02
      5.460  0.3287E+01  0.3286E+01  0.3431E+02  0.3431E+02
      5.546  0.5950E+01  0.5949E+01  0.3483E+02  0.3483E+02
      5.632  0.7195E+01  0.7195E+01  0.3545E+02  0.3545E+02
      5.718  0.6793E+01  0.6793E+01  0.3603E+02  0.3603E+02
      5.804  0.6157E+01  0.6157E+01  0.3656E+02  0.3656E+02
      5.890  0.6629E+01  0.6629E+01  0.3713E+02  0.3713E+02
      5.976  0.8298E+01  0.8296E+01  0.3785E+02  0.3784E+02
      6.062  0.9645E+01  0.9644E+01  0.3868E+02  0.3867E+02
      6.149  0.8713E+01  0.8714E+01  0.3943E+02  0.3942E+02
      6.235  0.6064E+01  0.6070E+01  0.3995E+02  0.3995E+02
      6.321  0.4707E+01  0.4721E+01  0.4035E+02  0.4035E+02
      6.407  0.5716E+01  0.5732E+01  0.4084E+02  0.4085E+02
      6.493  0.6567E+01  0.6568E+01  0.4141E+02  0.4141E+02
      6.579  0.5018E+01  0.4998E+01  0.4184E+02  0.4184E+02
      6.665  0.2152E+01  0.2133E+01  0.4203E+02  0.4203E+02
      6.751  0.2195E+00  0.2166E+00  0.4205E+02  0.4205E+02
      6.837 -0.2863E+00 -0.2806E+00  0.4202E+02  0.4202E+02
      6.923 -0.1802E+00 -0.1768E+00  0.4201E+02  0.4201E+02
      7.009 -0.5466E-01 -0.5428E-01  0.4200E+02  0.4200E+02
      7.095 -0.1020E-01 -0.1048E-01  0.4200E+02  0.4200E+02
      7.182 -0.1251E-02 -0.1377E-02  0.4200E+02  0.4200E+02
      7.268 -0.1034E-03 -0.1284E-03  0.4200E+02  0.4200E+02
      7.354 -0.5849E-05 -0.8736E-05  0.4200E+02  0.4200E+02
      7.440 -0.2278E-06 -0.4379E-06  0.4200E+02  0.4200E+02
      7.526 -0.6135E-08 -0.1612E-07  0.4200E+02  0.4200E+02
      7.612 -0.1146E-09 -0.4306E-09  0.4200E+02  0.4200E+02
      7.698 -0.1487E-11 -0.8216E-11  0.4200E+02  0.4200E+02
      7.784 -0.1343E-13 -0.1105E-12  0.4200E+02  0.4200E+02
      7.870 -0.3439E-16 -0.1015E-14  0.4200E+02  0.4200E+02
      7.956  0.0000E+00  0.0000E+00  0.4200E+02  0.4200E+02
      8.042  0.0000E+00  0.0000E+00  0.4200E+02  0.4200E+02
      8.128  0.0000E+00  0.0000E+00  0.4200E+02  0.4200E+02
      8.214  0.0000E+00  0.0000E+00  0.4200E+02  0.4200E+02
      8.301  0.0000E+00  0.0000E+00  0.4200E+02  0.4200E+02
      8.387  0.0000E+00  0.0000E+00  0.4200E+02  0.4200E+02
      8.473  0.0000E+00  0.0000E+00  0.4200E+02  0.4200E+02
      8.559  0.0000E+00  0.0000E+00  0.4200E+02  0.4200E+02
      8.645  0.0000E+00  0.0000E+00  0.4200E+02  0.4200E+02
      8.64484657    -17.17879179  301      3.27750845      1.00000000
    -17.179  0.0000E+00  0.0000E+00  0.0000E+00  0.0000E+00  0.0000E+00  0.0000E+00
    -17.093  0.0000E+00  0.0000E+00  0.0000E+00  0.0000E+00  0.0000E+00  0.0000E+00
    -17.007  0.0000E+00  0.0000E+00  0.0000E+00  0.0000E+00  0.0000E+00  0.0000E+00
    -16.921  0.0000E+00  0.0000E+00  0.0000E+00  0.0000E+00  0.0000E+00  0.0000E+00
    -16.834 -0.8526E-31 -0.7847E-31 -0.2446E-33 -0.2220E-33 -0.2988E-33 -0.1561E-33
    -16.748 -0.8751E-28 -0.8054E-28 -0.2909E-30 -0.2654E-30 -0.3171E-30 -0.1659E-30
    -16.662 -0.6050E-25 -0.5568E-25 -0.2094E-27 -0.1913E-27 -0.2214E-27 -0.1159E-27
    -16.576 -0.2882E-22 -0.2653E-22 -0.1042E-24 -0.9534E-25 -0.1067E-24 -0.5587E-25
    -16.490 -0.9457E-20 -0.8704E-20 -0.3586E-22 -0.3284E-22 -0.3543E-22 -0.1857E-22
    -16.404 -0.2137E-17 -0.1967E-17 -0.8529E-20 -0.7823E-20 -0.8118E-20 -0.4258E-20
    -16.318 -0.3226E-15 -0.2969E-15 -0.1368E-17 -0.1256E-17 -0.1247E-17 -0.6545E-18
    -16.232 -0.3429E-13 -0.3156E-13 -0.1541E-15 -0.1418E-15 -0.1348E-15 -0.7083E-16
    -16.146 -0.2503E-11 -0.2304E-11 -0.1205E-13 -0.1110E-13 -0.1005E-13 -0.5287E-14
    -16.060 -0.1251E-09 -0.1152E-09 -0.6502E-12 -0.5999E-12 -0.5154E-12 -0.2713E-12
    -15.974 -0.4273E-08 -0.3932E-08 -0.2420E-10 -0.2237E-10 -0.1813E-10 -0.9559E-11
    -15.888 -0.9926E-07 -0.9135E-07 -0.6206E-09 -0.5745E-09 -0.4370E-09 -0.2307E-09
    -15.802 -0.1559E-05 -0.1434E-05 -0.1093E-07 -0.1014E-07 -0.7183E-08 -0.3798E-08
    -15.715 -0.1637E-04 -0.1506E-04 -0.1317E-06 -0.1224E-06 -0.8006E-07 -0.4242E-07
    -15.629 -0.1127E-03 -0.1037E-03 -0.1077E-05 -0.1003E-05 -0.5981E-06 -0.3178E-06
    -15.543 -0.4873E-03 -0.4484E-03 -0.5873E-05 -0.5481E-05 -0.2926E-05 -0.1560E-05
    -15.457 -0.1169E-02 -0.1076E-02 -0.2052E-04 -0.1920E-04 -0.8845E-05 -0.4739E-05
    -15.371 -0.6500E-03 -0.5971E-03 -0.4030E-04 -0.3789E-04 -0.1328E-04 -0.7193E-05
    -15.285  0.4764E-02  0.4386E-02 -0.1332E-04 -0.1305E-04  0.7430E-05  0.3743E-05
    -15.199  0.1621E-01  0.1491E-01  0.1640E-03  0.1526E-03  0.8505E-04  0.4536E-04
    -15.113  0.2677E-01  0.2463E-01  0.5478E-03  0.5128E-03  0.2199E-03  0.1182E-03
    -15.027  0.2832E-01  0.2603E-01  0.1052E-02  0.9872E-03  0.3730E-03  0.2015E-03
    -14.941  0.2227E-01  0.2046E-01  0.1524E-02  0.1431E-02  0.5109E-03  0.2765E-03
    -14.855  0.1567E-01  0.1438E-01  0.1856E-02  0.1740E-02  0.6124E-03  0.3329E-03
    -14.769  0.1156E-01  0.1059E-01  0.1939E-02  0.1811E-02  0.6085E-03  0.3407E-03
    -14.683  0.9039E-02  0.8189E-02  0.1760E-02  0.1664E-02  0.4371E-03  0.2777E-03
    -14.596  0.8589E-02  0.7477E-02  0.2307E-02  0.2306E-02  0.6016E-03  0.3857E-03
    -14.510  0.1373E-01  0.1191E-01  0.6287E-02  0.6254E-02  0.2879E-02  0.1464E-02
    -14.424  0.2532E-01  0.2309E-01  0.1511E-01  0.1457E-01  0.8891E-02  0.4180E-02
    -14.338  0.3508E-01  0.3356E-01  0.2387E-01  0.2248E-01  0.1619E-01  0.7372E-02
    -14.252  0.3282E-01  0.3254E-01  0.2461E-01  0.2284E-01  0.1845E-01  0.8295E-02
    -14.166  0.2011E-01  0.2041E-01  0.1675E-01  0.1533E-01  0.1280E-01  0.5882E-02
    -14.080  0.8156E-02  0.8195E-02  0.8027E-02  0.7253E-02  0.3941E-02  0.2116E-02
    -13.994  0.4550E-02  0.3837E-02  0.5379E-02  0.6479E-02  0.1259E-02 -0.3860E-03
    -13.908  0.8368E-02  0.7084E-02  0.1191E-01  0.1834E-01  0.1904E-01  0.1712E-02
    -13.822  0.1414E-01  0.1372E-01  0.3172E-01  0.4468E-01  0.7244E-01  0.1668E-01
    -13.736  0.1790E-01  0.1913E-01  0.6769E-01  0.7781E-01  0.1512E+00  0.5261E-01
    -13.650  0.1956E-01  0.1969E-01  0.1045E+00  0.9708E-01  0.2010E+00  0.9530E-01
    -13.563  0.1845E-01  0.1433E-01  0.1086E+00  0.8403E-01  0.1724E+00  0.1064E+00
    -13.477  0.1264E-01  0.6415E-02  0.6994E-01  0.4635E-01  0.8905E-01  0.7141E-01
    -13.391  0.4813E-02  0.9266E-03  0.2255E-01  0.1219E-01  0.1938E-01  0.2401E-01
    -13.305  0.7915E-04 -0.7378E-03 -0.1630E-02 -0.2373E-02 -0.6534E-02 -0.1140E-02
    -13.219 -0.8628E-03 -0.5368E-03 -0.4790E-02 -0.3379E-02 -0.6613E-02 -0.4776E-02
    -13.133 -0.4397E-03 -0.1756E-03 -0.2128E-02 -0.1383E-02 -0.2460E-02 -0.2173E-02
    -13.047 -0.1146E-03 -0.3471E-04 -0.5131E-03 -0.3224E-03 -0.5394E-03 -0.5303E-03
    -12.961 -0.1827E-04 -0.4457E-05 -0.7732E-04 -0.4779E-04 -0.7645E-04 -0.8063E-04
    -12.875 -0.1883E-05 -0.3827E-06 -0.7625E-05 -0.4676E-05 -0.7233E-05 -0.8014E-05
    -12.789 -0.1287E-06 -0.2230E-07 -0.5026E-06 -0.3071E-06 -0.4635E-06 -0.5320E-06
    -12.703 -0.5910E-08 -0.8884E-09 -0.2238E-07 -0.1366E-07 -0.2025E-07 -0.2386E-07
    -12.617 -0.1838E-09 -0.2431E-10 -0.6778E-09 -0.4139E-09 -0.6055E-09 -0.7275E-09
    -12.531 -0.3889E-11 -0.4580E-12 -0.1402E-10 -0.8569E-11 -0.1242E-10 -0.1514E-10
    -12.444 -0.5619E-13 -0.5956E-14 -0.1985E-12 -0.1215E-12 -0.1750E-12 -0.2158E-12
    -12.358 -0.5567E-15 -0.5359E-16 -0.1933E-14 -0.1183E-14 -0.1696E-14 -0.2116E-14
    -12.272 -0.2758E-17 -0.1060E-18 -0.7713E-17 -0.4571E-17 -0.6285E-17 -0.9118E-17
    -12.186  0.0000E+00  0.0000E+00  0.0000E+00  0.0000E+00  0.0000E+00  0.0000E+00
    -12.100  0.0000E+00  0.0000E+00  0.0000E+00  0.0000E+00  0.0000E+00  0.0000E+00
    -12.014  0.0000E+00  0.0000E+00  0.0000E+00  0.0000E+00  0.0000E+00  0.0000E+00
    -11.928  0.0000E+00  0.0000E+00  0.0000E+00  0.0000E+00  0.0000E+00  0.0000E+00
    -11.842  0.0000E+00  0.0000E+00  0.0000E+00  0.0000E+00  0.0000E+00  0.0000E+00
    -11.756  0.0000E+00  0.0000E+00  0.0000E+00  0.0000E+00  0.0000E+00  0.0000E+00
    -11.670  0.0000E+00  0.0000E+00  0.0000E+00  0.0000E+00  0.0000E+00  0.0000E+00
    -11.584  0.0000E+00  0.0000E+00  0.0000E+00  0.0000E+00  0.0000E+00  0.0000E+00
    -11.498  0.0000E+00  0.0000E+00  0.0000E+00  0.0000E+00  0.0000E+00  0.0000E+00
    -11.412  0.0000E+00  0.0000E+00  0.0000E+00  0.0000E+00  0.0000E+00  0.0000E+00
    -11.325  0.0000E+00  0.0000E+00  0.0000E+00  0.0000E+00  0.0000E+00  0.0000E+00
    -11.239  0.0000E+00  0.0000E+00  0.0000E+00  0.0000E+00  0.0000E+00  0.0000E+00
    -11.153  0.0000E+00  0.0000E+00  0.0000E+00  0.0000E+00  0.0000E+00  0.0000E+00
    -11.067  0.0000E+00  0.0000E+00  0.0000E+00  0.0000E+00  0.0000E+00  0.0000E+00
    -10.981  0.0000E+00  0.0000E+00  0.0000E+00  0.0000E+00  0.0000E+00  0.0000E+00
    -10.895  0.0000E+00  0.0000E+00  0.0000E+00  0.0000E+00  0.0000E+00  0.0000E+00
    -10.809  0.0000E+00  0.0000E+00  0.0000E+00  0.0000E+00  0.0000E+00  0.0000E+00
    -10.723  0.0000E+00  0.0000E+00  0.0000E+00  0.0000E+00  0.0000E+00  0.0000E+00
    -10.637  0.0000E+00  0.0000E+00  0.0000E+00  0.0000E+00  0.0000E+00  0.0000E+00
    -10.551  0.0000E+00  0.0000E+00  0.0000E+00  0.0000E+00  0.0000E+00  0.0000E+00
    -10.465  0.0000E+00  0.0000E+00  0.0000E+00  0.0000E+00  0.0000E+00  0.0000E+00
    -10.379  0.0000E+00  0.0000E+00  0.0000E+00  0.0000E+00  0.0000E+00  0.0000E+00
    -10.292  0.0000E+00  0.0000E+00  0.0000E+00  0.0000E+00  0.0000E+00  0.0000E+00
    -10.206  0.0000E+00  0.0000E+00  0.0000E+00  0.0000E+00  0.0000E+00  0.0000E+00
    -10.120  0.0000E+00  0.0000E+00  0.0000E+00  0.0000E+00  0.0000E+00  0.0000E+00
    -10.034  0.0000E+00  0.0000E+00  0.0000E+00  0.0000E+00  0.0000E+00  0.0000E+00
     -9.948  0.0000E+00  0.0000E+00  0.0000E+00  0.0000E+00  0.0000E+00  0.0000E+00
     -9.862  0.0000E+00  0.0000E+00  0.0000E+00  0.0000E+00  0.0000E+00  0.0000E+00
     -9.776  0.0000E+00  0.0000E+00  0.0000E+00  0.0000E+00  0.0000E+00  0.0000E+00
     -9.690  0.0000E+00  0.0000E+00  0.0000E+00  0.0000E+00  0.0000E+00  0.0000E+00
     -9.604  0.0000E+00  0.0000E+00  0.0000E+00  0.0000E+00  0.0000E+00  0.0000E+00
     -9.518  0.0000E+00  0.0000E+00  0.0000E+00  0.0000E+00  0.0000E+00  0.0000E+00
     -9.432  0.0000E+00  0.0000E+00  0.0000E+00  0.0000E+00  0.0000E+00  0.0000E+00
     -9.346  0.0000E+00  0.0000E+00  0.0000E+00  0.0000E+00  0.0000E+00  0.0000E+00
     -9.260  0.0000E+00  0.0000E+00  0.0000E+00  0.0000E+00  0.0000E+00  0.0000E+00
     -9.173  0.0000E+00  0.0000E+00  0.0000E+00  0.0000E+00  0.0000E+00  0.0000E+00
     -9.087  0.0000E+00  0.0000E+00  0.0000E+00  0.0000E+00  0.0000E+00  0.0000E+00
     -9.001  0.0000E+00  0.0000E+00  0.0000E+00  0.0000E+00  0.0000E+00  0.0000E+00
     -8.915  0.0000E+00  0.0000E+00  0.0000E+00  0.0000E+00  0.0000E+00  0.0000E+00
     -8.829  0.0000E+00  0.0000E+00  0.0000E+00  0.0000E+00  0.0000E+00  0.0000E+00
     -8.743  0.0000E+00  0.0000E+00  0.0000E+00  0.0000E+00  0.0000E+00  0.0000E+00
     -8.657  0.0000E+00  0.0000E+00  0.0000E+00  0.0000E+00  0.0000E+00  0.0000E+00
     -8.571  0.0000E+00  0.0000E+00  0.0000E+00  0.0000E+00  0.0000E+00  0.0000E+00
     -8.485  0.0000E+00  0.0000E+00  0.0000E+00  0.0000E+00  0.0000E+00  0.0000E+00
     -8.399  0.0000E+00  0.0000E+00  0.0000E+00  0.0000E+00  0.0000E+00  0.0000E+00
     -8.313  0.0000E+00  0.0000E+00  0.0000E+00  0.0000E+00  0.0000E+00  0.0000E+00
     -8.227  0.0000E+00  0.0000E+00  0.0000E+00  0.0000E+00  0.0000E+00  0.0000E+00
     -8.141  0.0000E+00  0.0000E+00  0.0000E+00  0.0000E+00  0.0000E+00  0.0000E+00
     -8.054  0.0000E+00  0.0000E+00  0.0000E+00  0.0000E+00  0.0000E+00  0.0000E+00
     -7.968  0.0000E+00  0.0000E+00  0.0000E+00  0.0000E+00  0.0000E+00  0.0000E+00
     -7.882  0.0000E+00  0.0000E+00  0.0000E+00  0.0000E+00  0.0000E+00  0.0000E+00
     -7.796  0.0000E+00  0.0000E+00  0.0000E+00  0.0000E+00  0.0000E+00  0.0000E+00
     -7.710  0.0000E+00  0.0000E+00  0.0000E+00  0.0000E+00  0.0000E+00  0.0000E+00
     -7.624  0.0000E+00  0.0000E+00  0.0000E+00  0.0000E+00  0.0000E+00  0.0000E+00
     -7.538  0.0000E+00  0.0000E+00  0.0000E+00  0.0000E+00  0.0000E+00  0.0000E+00
     -7.452  0.0000E+00  0.0000E+00  0.0000E+00  0.0000E+00  0.0000E+00  0.0000E+00
     -7.366  0.0000E+00  0.0000E+00  0.0000E+00  0.0000E+00  0.0000E+00  0.0000E+00
     -7.280  0.0000E+00  0.0000E+00  0.0000E+00  0.0000E+00  0.0000E+00  0.0000E+00
     -7.194  0.0000E+00  0.0000E+00  0.0000E+00  0.0000E+00  0.0000E+00  0.0000E+00
     -7.108  0.0000E+00  0.0000E+00  0.0000E+00  0.0000E+00  0.0000E+00  0.0000E+00
     -7.021  0.0000E+00  0.0000E+00  0.0000E+00  0.0000E+00  0.0000E+00  0.0000E+00
     -6.935  0.0000E+00  0.0000E+00  0.0000E+00  0.0000E+00  0.0000E+00  0.0000E+00
     -6.849  0.0000E+00  0.0000E+00  0.0000E+00  0.0000E+00  0.0000E+00  0.0000E+00
     -6.763  0.0000E+00  0.0000E+00  0.0000E+00  0.0000E+00  0.0000E+00  0.0000E+00
     -6.677  0.0000E+00  0.0000E+00  0.0000E+00  0.0000E+00  0.0000E+00  0.0000E+00
     -6.591  0.0000E+00  0.0000E+00  0.0000E+00  0.0000E+00  0.0000E+00  0.0000E+00
     -6.505  0.0000E+00  0.0000E+00  0.0000E+00  0.0000E+00  0.0000E+00  0.0000E+00
     -6.419  0.0000E+00  0.0000E+00  0.0000E+00  0.0000E+00  0.0000E+00  0.0000E+00
     -6.333  0.0000E+00  0.0000E+00  0.0000E+00  0.0000E+00  0.0000E+00  0.0000E+00
     -6.247  0.0000E+00  0.0000E+00  0.0000E+00  0.0000E+00  0.0000E+00  0.0000E+00
     -6.161  0.0000E+00  0.0000E+00  0.0000E+00  0.0000E+00  0.0000E+00  0.0000E+00
     -6.075  0.0000E+00  0.0000E+00  0.0000E+00  0.0000E+00  0.0000E+00  0.0000E+00
     -5.989  0.0000E+00  0.0000E+00  0.0000E+00  0.0000E+00  0.0000E+00  0.0000E+00
     -5.902  0.0000E+00  0.0000E+00  0.0000E+00  0.0000E+00  0.0000E+00  0.0000E+00
     -5.816  0.0000E+00  0.0000E+00  0.0000E+00  0.0000E+00  0.0000E+00  0.0000E+00
     -5.730  0.0000E+00  0.0000E+00  0.0000E+00  0.0000E+00  0.0000E+00  0.0000E+00
     -5.644  0.0000E+00  0.0000E+00  0.0000E+00  0.0000E+00  0.0000E+00  0.0000E+00
     -5.558 -0.2992E-33 -0.2100E-31 -0.4061E-32 -0.2817E-32 -0.3712E-30 -0.3547E-32
     -5.472 -0.3820E-30 -0.2404E-28 -0.4728E-29 -0.3267E-29 -0.4271E-27 -0.4187E-29
     -5.386 -0.2811E-27 -0.1711E-25 -0.3373E-26 -0.2314E-26 -0.3046E-24 -0.3013E-26